METHYL-ACCEPTING CHEMOTAXIS PROTEIN II in water
95969
    1LIG      N    1   2.487   9.478   5.015
    1LIG     H1    2   2.586   9.502   4.998
    1LIG     H2    3   2.452   9.415   4.940
    1LIG     H3    4   2.428   9.563   5.016
    1LIG     CA    5   2.474   9.397   5.140
    1LIG     HA    6   2.567   9.403   5.193
    1LIG     CB    7   2.355   9.458   5.220
    1LIG    HB1    8   2.259   9.414   5.185
    1LIG    HB2    9   2.349   9.568   5.207
    1LIG     CG   10   2.364   9.436   5.370
    1LIG    OD1   11   2.266   9.472   5.440
    1LIG    OD2   12   2.470   9.392   5.420
    1LIG      C   13   2.449   9.249   5.097
    1LIG    OT1   14   2.408   9.225   4.980
    1LIG    OT2   15   2.473   9.154   5.177
    2LIG      N   16   0.402   2.526   0.675
    2LIG     H1   17   0.299   2.515   0.668
    2LIG     H2   18   0.441   2.502   0.582
    2LIG     H3   19   0.442   2.461   0.746
    2LIG     CA   20   0.441   2.668   0.703
    2LIG     HA   21   0.350   2.722   0.726
    2LIG     CB   22   0.538   2.667   0.825
    2LIG    HB1   23   0.639   2.631   0.795
    2LIG    HB2   24   0.497   2.599   0.902
    2LIG     CG   25   0.551   2.800   0.896
    2LIG    OD1   26   0.659   2.825   0.956
    2LIG    OD2   27   0.449   2.874   0.904
    2LIG      C   28   0.502   2.731   0.574
    2LIG    OT1   29   0.521   2.658   0.473
    2LIG    OT2   30   0.528   2.854   0.570
    3LIG      N   31   4.003   1.324   1.593
    3LIG     H1   32   4.103   1.304   1.615
    3LIG     H2   33   3.950   1.337   1.681
    3LIG     H3   34   3.961   1.243   1.542
    3LIG     CA   35   3.992   1.446   1.508
    3LIG     HA   36   4.076   1.508   1.534
    3LIG     CB   37   3.999   1.399   1.360
    3LIG    HB1   38   3.900   1.362   1.326
    3LIG    HB2   39   4.073   1.318   1.347
    3LIG     CG   40   4.044   1.511   1.268
    3LIG    OD1   41   4.018   1.500   1.146
    3LIG    OD2   42   4.118   1.602   1.315
    3LIG      C   43   3.862   1.527   1.538
    3LIG    OT1   44   3.773   1.476   1.611
    3LIG    OT2   45   3.849   1.644   1.491
    4LIG      N   46   0.803   8.998   1.242
    4LIG     H1   47   0.790   8.913   1.300
    4LIG     H2   48   0.738   8.998   1.161
    4LIG     H3   49   0.901   9.000   1.205
    4LIG     CA   50   0.791   9.123   1.322
    4LIG     HA   51   0.687   9.155   1.318
    4LIG     CB   52   0.835   9.089   1.468
    4LIG    HB1   53   0.945   9.104   1.478
    4LIG    HB2   54   0.811   8.984   1.495
    4LIG     CG   55   0.766   9.172   1.575
    4LIG    OD1   56   0.822   9.180   1.687
    4LIG    OD2   57   0.649   9.214   1.554
    4LIG      C   58   0.880   9.234   1.258
    4LIG    OT1   59   0.958   9.203   1.163
    4LIG    OT2   60   0.871   9.352   1.302
    5LIG      N   61   8.974   3.382   0.448
    5LIG     H1   62   8.884   3.329   0.449
    5LIG     H2   63   8.973   3.453   0.372
    5LIG     H3   64   9.054   3.318   0.432
    5LIG     CA   65   9.002   3.453   0.576
    5LIG     HA   66   8.971   3.555   0.561
    5LIG     CB   67   8.924   3.382   0.691
    5LIG    HB1   68   8.994   3.335   0.763
    5LIG    HB2   69   8.855   3.303   0.655
    5LIG     CG   70   8.839   3.483   0.764
    5LIG    OD1   71   8.815   3.462   0.886
    5LIG    OD2   72   8.786   3.576   0.698
    5LIG      C   73   9.154   3.457   0.605
    5LIG    OT1   74   9.232   3.390   0.531
    5LIG    OT2   75   9.198   3.529   0.698
    6LIG      N   76   5.282   0.064   8.567
    6LIG     H1   77   5.252   0.081   8.665
    6LIG     H2   78   5.349   0.138   8.539
    6LIG     H3   79   5.202   0.064   8.500
    6LIG     CA   80   5.353   9.934   8.553
    6LIG     HA   81   5.449   9.949   8.601
    6LIG     CB   82   5.273   9.823   8.626
    6LIG    HB1   83   5.188   9.787   8.564
    6LIG    HB2   84   5.233   9.861   8.723
    6LIG     CG   85   5.365   9.708   8.661
    6LIG    OD1   86   5.325   9.591   8.639
    6LIG    OD2   87   5.474   9.733   8.719
    6LIG      C   88   5.377   9.895   8.404
    6LIG    OT1   89   5.320   9.962   8.314
    6LIG    OT2   90   5.448   9.795   8.378
    7LIG      N   91   2.387   7.015   4.964
    7LIG     H1   92   2.365   7.107   5.007
    7LIG     H2   93   2.319   6.997   4.887
    7LIG     H3   94   2.378   6.939   5.035
    7LIG     CA   95   2.525   7.013   4.909
    7LIG     HA   96   2.516   7.018   4.801
    7LIG     CB   97   2.599   7.137   4.968
    7LIG    HB1   98   2.638   7.117   5.070
    7LIG    HB2   99   2.531   7.225   4.973
    7LIG     CG  100   2.712   7.181   4.878
    7LIG    OD1  101   2.817   7.227   4.930
    7LIG    OD2  102   2.689   7.185   4.754
    7LIG      C  103   2.601   6.882   4.945
    7LIG    OT1  104   2.550   6.803   5.029
    7LIG    OT2  105   2.713   6.859   4.892
    8LIG      N  106   8.479   2.401   5.332
    8LIG     H1  107   8.427   2.323   5.286
    8LIG     H2  108   8.573   2.413   5.291
    8LIG     H3  109   8.490   2.384   5.434
    8LIG     CA  110   8.410   2.532   5.320
    8LIG     HA  111   8.447   2.576   5.228
    8LIG     CB  112   8.256   2.508   5.314
    8LIG    HB1  113   8.213   2.497   5.416
    8LIG    HB2  114   8.232   2.417   5.256
    8LIG     CG  115   8.186   2.622   5.243
    8LIG    OD1  116   8.066   2.647   5.270
    8LIG    OD2  117   8.246   2.677   5.147
    8LIG      C  118   8.451   2.626   5.438
    8LIG    OT1  119   8.520   2.578   5.531
    8LIG    OT2  120   8.416   2.747   5.437
    9LIG      N  121   9.697   5.643   5.272
    9LIG     H1  122   9.629   5.655   5.195
    9LIG     H2  123   9.663   5.694   5.357
    9LIG     H3  124   9.788   5.685   5.244
    9LIG     CA  125   9.717   5.499   5.303
    9LIG     HA  126   9.620   5.458   5.329
    9LIG     CB  127   9.774   5.437   5.173
    9LIG    HB1  128   9.879   5.466   5.155
    9LIG    HB2  129   9.714   5.469   5.085
    9LIG     CG  130   9.761   5.287   5.179
    9LIG    OD1  131   9.859   5.215   5.146
    9LIG    OD2  132   9.647   5.241   5.206
    9LIG      C  133   9.812   5.476   5.424
    9LIG    OT1  134   9.887   5.570   5.464
    9LIG    OT2  135   9.812   5.364   5.481
   10LIG      N  136   0.440   3.334   4.543
   10LIG     H1  137   0.484   3.359   4.634
   10LIG     H2  138   0.337   3.340   4.551
   10LIG     H3  139   0.466   3.238   4.516
   10LIG     CA  140   0.488   3.430   4.440
   10LIG     HA  141   0.469   3.528   4.479
   10LIG     CB  142   0.641   3.404   4.423
   10LIG    HB1  143   0.659   3.322   4.350
   10LIG    HB2  144   0.687   3.375   4.520
   10LIG     CG  145   0.716   3.528   4.379
   10LIG    OD1  146   0.837   3.515   4.347
   10LIG    OD2  147   0.660   3.640   4.382
   10LIG      C  148   0.406   3.417   4.308
   10LIG    OT1  149   0.307   3.338   4.303
   10LIG    OT2  150   0.436   3.487   4.208
   11LIG      N  151   9.209   2.113   5.255
   11LIG     H1  152   9.269   2.028   5.255
   11LIG     H2  153   9.261   2.193   5.297
   11LIG     H3  154   9.125   2.092   5.314
   11LIG     CA  155   9.164   2.149   5.118
   11LIG     HA  156   9.231   2.226   5.082
   11LIG     CB  157   9.169   2.022   5.029
   11LIG    HB1  158   9.072   1.969   5.025
   11LIG    HB2  159   9.246   1.950   5.065
   11LIG     CG  160   9.213   2.058   4.889
   11LIG    OD1  161   9.142   2.024   4.792
   11LIG    OD2  162   9.324   2.118   4.876
   11LIG      C  163   9.020   2.210   5.121
   11LIG    OT1  164   8.949   2.198   5.225
   11LIG    OT2  165   8.977   2.271   5.020
   12LIG      N  166   5.686   9.056   7.559
   12LIG     H1  167   5.635   9.105   7.636
   12LIG     H2  168   5.684   8.953   7.574
   12LIG     H3  169   5.784   9.091   7.560
   12LIG     CA  170   5.627   9.089   7.426
   12LIG     HA  171   5.524   9.056   7.431
   12LIG     CB  172   5.636   9.243   7.407
   12LIG    HB1  173   5.733   9.271   7.361
   12LIG    HB2  174   5.627   9.297   7.504
   12LIG     CG  175   5.524   9.296   7.320
   12LIG    OD1  176   5.529   9.417   7.284
   12LIG    OD2  177   5.425   9.223   7.295
   12LIG      C  178   5.695   9.007   7.312
   12LIG    OT1  179   5.777   8.917   7.342
   12LIG    OT2  180   5.665   9.032   7.193
   13LIG      N  181   0.409   5.900   2.059
   13LIG     H1  182   0.353   5.986   2.042
   13LIG     H2  183   0.462   5.907   2.148
   13LIG     H3  184   0.476   5.885   1.981
   13LIG     CA  185   0.318   5.781   2.066
   13LIG     HA  186   0.378   5.697   2.098
   13LIG     CB  187   0.204   5.806   2.169
   13LIG    HB1  188   0.133   5.721   2.169
   13LIG    HB2  189   0.147   5.899   2.147
   13LIG     CG  190   0.262   5.816   2.308
   13LIG    OD1  191   0.188   5.834   2.408
   13LIG    OD2  192   0.387   5.805   2.321
   13LIG      C  193   0.263   5.740   1.927
   13LIG    OT1  194   0.295   5.807   1.825
   13LIG    OT2  195   0.191   5.638   1.918
   14LIG      N  196   2.376   8.378   7.933
   14LIG     H1  197   2.362   8.422   8.026
   14LIG     H2  198   2.291   8.397   7.877
   14LIG     H3  199   2.386   8.275   7.944
   14LIG     CA  200   2.494   8.433   7.860
   14LIG     HA  201   2.496   8.538   7.884
   14LIG     CB  202   2.619   8.359   7.915
   14LIG    HB1  203   2.630   8.259   7.867
   14LIG    HB2  204   2.612   8.344   8.025
   14LIG     CG  205   2.748   8.436   7.893
   14LIG    OD1  206   2.856   8.374   7.910
   14LIG    OD2  207   2.743   8.560   7.873
   14LIG      C  208   2.477   8.417   7.705
   14LIG    OT1  209   2.379   8.351   7.660
   14LIG    OT2  210   2.559   8.473   7.628
   15LIG      N  211   9.259   0.622   2.028
   15LIG     H1  212   9.346   0.566   2.018
   15LIG     H2  213   9.216   0.608   2.122
   15LIG     H3  214   9.192   0.585   1.959
   15LIG     CA  215   9.275   0.768   2.001
   15LIG     HA  216   9.334   0.808   2.083
   15LIG     CB  217   9.351   0.785   1.865
   15LIG    HB1  218   9.281   0.773   1.780
   15LIG    HB2  219   9.430   0.708   1.856
   15LIG     CG  220   9.421   0.919   1.856
   15LIG    OD1  221   9.449   0.965   1.742
   15LIG    OD2  222   9.464   0.972   1.961
   15LIG      C  223   9.136   0.840   2.003
   15LIG    OT1  224   9.033   0.776   2.038
   15LIG    OT2  225   9.128   0.961   1.971
   16LIG      N  226   7.817   3.446   0.179
   16LIG     H1  227   7.839   3.515   0.254
   16LIG     H2  228   7.892   3.373   0.177
   16LIG     H3  229   7.816   3.494   0.086
   16LIG     CA  230   7.690   3.373   0.199
   16LIG     HA  231   7.676   3.366   0.306
   16LIG     CB  232   7.575   3.451   0.127
   16LIG    HB1  233   7.551   3.404   0.029
   16LIG    HB2  234   7.602   3.557   0.108
   16LIG     CG  235   7.448   3.457   0.210
   16LIG    OD1  236   7.342   3.495   0.154
   16LIG    OD2  237   7.455   3.442   0.334
   16LIG      C  238   7.706   3.227   0.147
   16LIG    OT1  239   7.817   3.189   0.102
   16LIG    OT2  240   7.606   3.151   0.151
   17LIG      N  241   3.370   0.821   9.161
   17LIG     H1  242   3.425   0.908   9.147
   17LIG     H2  243   3.295   0.819   9.090
   17LIG     H3  244   3.330   0.814   9.257
   17LIG     CA  245   3.459   0.704   9.134
   17LIG     HA  246   3.500   0.719   9.035
   17LIG     CB  247   3.568   0.706   9.244
   17LIG    HB1  248   3.526   0.671   9.341
   17LIG    HB2  249   3.609   0.808   9.258
   17LIG     CG  250   3.686   0.619   9.206
   17LIG    OD1  251   3.751   0.566   9.299
   17LIG    OD2  252   3.721   0.613   9.085
   17LIG      C  253   3.378   0.571   9.132
   17LIG    OT1  254   3.261   0.569   9.179
   17LIG    OT2  255   3.429   0.470   9.077
   18LIG      N  256   2.491   0.701   0.293
   18LIG     H1  257   2.580   0.654   0.268
   18LIG     H2  258   2.480   0.707   0.396
   18LIG     H3  259   2.409   0.647   0.256
   18LIG     CA  260   2.484   0.839   0.237
   18LIG     HA  261   2.568   0.892   0.279
   18LIG     CB  262   2.495   0.833   0.081
   18LIG    HB1  263   2.395   0.820   0.034
   18LIG    HB2  264   2.560   0.749   0.049
   18LIG     CG  265   2.562   0.959   0.030
   18LIG    OD1  266   2.510   1.022   9.934
   18LIG    OD2  267   2.671   0.993   0.081
   18LIG      C  268   2.356   0.913   0.288
   18LIG    OT1  269   2.298   0.869   0.391
   18LIG    OT2  270   2.316   1.015   0.227
   19LIG      N  271   4.565   0.082   5.593
   19LIG     H1  272   4.638   0.008   5.592
   19LIG     H2  273   4.541   0.102   5.692
   19LIG     H3  274   4.476   0.050   5.548
   19LIG     CA  275   4.606   0.214   5.538
   19LIG     HA  276   4.713   0.223   5.549
   19LIG     CB  277   4.560   0.227   5.389
   19LIG    HB1  278   4.538   0.334   5.366
   19LIG    HB2  279   4.467   0.169   5.369
   19LIG     CG  280   4.667   0.184   5.292
   19LIG    OD1  281   4.639   0.184   5.169
   19LIG    OD2  282   4.781   0.153   5.335
   19LIG      C  283   4.546   0.326   5.629
   19LIG    OT1  284   4.488   0.294   5.737
   19LIG    OT2  285   4.561   0.446   5.595
   20LIG      N  286   7.938   9.125   4.458
   20LIG     H1  287   8.026   9.124   4.404
   20LIG     H2  288   7.944   9.049   4.529
   20LIG     H3  289   7.856   9.108   4.396
   20LIG     CA  290   7.922   9.253   4.533
   20LIG     HA  291   8.020   9.274   4.575
   20LIG     CB  292   7.874   9.363   4.434
   20LIG    HB1  293   7.766   9.387   4.447
   20LIG    HB2  294   7.892   9.334   4.328
   20LIG     CG  295   7.956   9.487   4.453
   20LIG    OD1  296   7.900   9.599   4.442
   20LIG    OD2  297   8.081   9.471   4.461
   20LIG      C  298   7.823   9.241   4.652
   20LIG    OT1  299   7.751   9.139   4.663
   20LIG    OT2  300   7.817   9.335   4.735
   21LIG      N  301   8.568   7.298   0.598
   21LIG     H1  302   8.568   7.387   0.652
   21LIG     H2  303   8.479   7.247   0.614
   21LIG     H3  304   8.648   7.239   0.630
   21LIG     CA  305   8.581   7.323   0.451
   21LIG     HA  306   8.541   7.421   0.432
   21LIG     CB  307   8.734   7.316   0.423
   21LIG    HB1  308   8.770   7.210   0.422
   21LIG    HB2  309   8.791   7.370   0.501
   21LIG     CG  310   8.771   7.383   0.294
   21LIG    OD1  311   8.869   7.337   0.229
   21LIG    OD2  312   8.712   7.490   0.263
   21LIG      C  313   8.500   7.220   0.366
   21LIG    OT1  314   8.457   7.115   0.421
   21LIG    OT2  315   8.479   7.244   0.244
   22LIG      N  316   2.639   4.773   0.007
   22LIG     H1  317   2.648   4.874   0.030
   22LIG     H2  318   2.723   4.720   0.039
   22LIG     H3  319   2.632   4.762   9.904
   22LIG     CA  320   2.518   4.711   0.067
   22LIG     HA  321   2.509   4.751   0.167
   22LIG     CB  322   2.396   4.747   9.977
   22LIG    HB1  323   2.369   4.661   9.912
   22LIG    HB2  324   2.417   4.834   9.912
   22LIG     CG  325   2.274   4.786   0.058
   22LIG    OD1  326   2.162   4.781   0.000
   22LIG    OD2  327   2.291   4.838   0.172
   22LIG      C  328   2.536   4.557   0.085
   22LIG    OT1  329   2.650   4.507   0.066
   22LIG    OT2  330   2.438   4.486   0.121
   23LIG      N  331   2.155   1.945   8.552
   23LIG     H1  332   2.180   1.867   8.488
   23LIG     H2  333   2.107   2.020   8.497
   23LIG     H3  334   2.240   1.986   8.595
   23LIG     CA  335   2.063   1.900   8.660
   23LIG     HA  336   1.977   1.856   8.611
   23LIG     CB  337   2.140   1.800   8.751
   23LIG    HB1  338   2.158   1.843   8.851
   23LIG    HB2  339   2.238   1.772   8.707
   23LIG     CG  340   2.066   1.669   8.766
   23LIG    OD1  341   2.083   1.602   8.872
   23LIG    OD2  342   2.002   1.624   8.668
   23LIG      C  343   2.010   2.022   8.741
   23LIG    OT1  344   2.055   2.138   8.718
   23LIG    OT2  345   1.920   2.003   8.827
   24LIG      N  346   0.499   2.358   2.463
   24LIG     H1  347   0.483   2.295   2.382
   24LIG     H2  348   0.476   2.307   2.551
   24LIG     H3  349   0.431   2.437   2.456
   24LIG     CA  350   0.637   2.413   2.471
   24LIG     HA  351   0.705   2.332   2.449
   24LIG     CB  352   0.646   2.526   2.363
   24LIG    HB1  353   0.615   2.623   2.407
   24LIG    HB2  354   0.579   2.504   2.277
   24LIG     CG  355   0.784   2.542   2.302
   24LIG    OD1  356   0.798   2.640   2.224
   24LIG    OD2  357   0.874   2.457   2.321
   24LIG      C  358   0.668   2.463   2.616
   24LIG    OT1  359   0.581   2.446   2.706
   24LIG    OT2  360   0.779   2.517   2.642
   25LIG      N  361   0.857   3.450   8.549
   25LIG     H1  362   0.838   3.364   8.494
   25LIG     H2  363   0.809   3.442   8.641
   25LIG     H3  364   0.817   3.534   8.502
   25LIG     CA  365   1.003   3.472   8.571
   25LIG     HA  366   1.043   3.381   8.613
   25LIG     CB  367   1.066   3.506   8.432
   25LIG    HB1  368   1.050   3.613   8.406
   25LIG    HB2  369   1.019   3.445   8.352
   25LIG     CG  370   1.214   3.473   8.429
   25LIG    OD1  371   1.295   3.562   8.391
   25LIG    OD2  372   1.250   3.355   8.452
   25LIG      C  373   1.027   3.589   8.671
   25LIG    OT1  374   0.930   3.662   8.706
   25LIG    OT2  375   1.143   3.610   8.714
   26LIG      N  376   0.687   7.288   0.957
   26LIG     H1  377   0.670   7.196   0.912
   26LIG     H2  378   0.725   7.278   1.053
   26LIG     H3  379   0.596   7.339   0.961
   26LIG     CA  380   0.781   7.370   0.877
   26LIG     HA  381   0.866   7.307   0.861
   26LIG     CB  382   0.715   7.410   0.742
   26LIG    HB1  383   0.655   7.503   0.753
   26LIG    HB2  384   0.647   7.330   0.705
   26LIG     CG  385   0.818   7.431   0.633
   26LIG    OD1  386   0.784   7.495   0.530
   26LIG    OD2  387   0.927   7.368   0.639
   26LIG      C  388   0.832   7.489   0.963
   26LIG    OT1  389   0.865   7.468   1.083
   26LIG    OT2  390   0.839   7.604   0.911
   27LIG      N  391   4.682   0.077   4.927
   27LIG     H1  392   4.670   0.115   5.023
   27LIG     H2  393   4.682   9.974   4.932
   27LIG     H3  394   4.774   0.108   4.891
   27LIG     CA  395   4.570   0.123   4.840
   27LIG     HA  396   4.541   0.221   4.875
   27LIG     CB  397   4.626   0.129   4.694
   27LIG    HB1  398   4.621   0.027   4.649
   27LIG    HB2  399   4.732   0.162   4.693
   27LIG     CG  400   4.554   0.227   4.604
   27LIG    OD1  401   4.577   0.219   4.480
   27LIG    OD2  402   4.487   0.321   4.654
   27LIG      C  403   4.447   0.028   4.850
   27LIG    OT1  404   4.459   9.916   4.907
   27LIG    OT2  405   4.337   0.065   4.803
   28LIG      N  406   9.541   8.994   3.250
   28LIG     H1  407   9.584   9.039   3.166
   28LIG     H2  408   9.611   8.934   3.299
   28LIG     H3  409   9.465   8.932   3.218
   28LIG     CA  410   9.483   9.097   3.342
   28LIG     HA  411   9.562   9.168   3.363
   28LIG     CB  412   9.364   9.162   3.266
   28LIG    HB1  413   9.270   9.106   3.286
   28LIG    HB2  414   9.381   9.162   3.156
   28LIG     CG  415   9.347   9.307   3.304
   28LIG    OD1  416   9.243   9.342   3.364
   28LIG    OD2  417   9.434   9.389   3.265
   28LIG      C  418   9.436   9.037   3.477
   28LIG    OT1  419   9.436   8.911   3.494
   28LIG    OT2  420   9.399   9.116   3.568
   29LIG      N  421   3.393   1.466   1.914
   29LIG     H1  422   3.293   1.466   1.885
   29LIG     H2  423   3.406   1.526   1.998
   29LIG     H3  424   3.453   1.501   1.836
   29LIG     CA  425   3.428   1.324   1.943
   29LIG     HA  426   3.371   1.292   2.028
   29LIG     CB  427   3.394   1.237   1.818
   29LIG    HB1  428   3.429   1.133   1.835
   29LIG    HB2  429   3.443   1.276   1.726
   29LIG     CG  430   3.245   1.231   1.796
   29LIG    OD1  431   3.198   1.149   1.713
   29LIG    OD2  432   3.173   1.312   1.859
   29LIG      C  433   3.577   1.304   1.980
   29LIG    OT1  434   3.661   1.397   1.961
   29LIG    OT2  435   3.610   1.193   2.030
   30LIG      N  436   1.313   9.403   4.737
   30LIG     H1  437   1.232   9.357   4.783
   30LIG     H2  438   1.296   9.505   4.741
   30LIG     H3  439   1.320   9.374   4.637
   30LIG     CA  440   1.440   9.379   4.812
   30LIG     HA  441   1.413   9.318   4.897
   30LIG     CB  442   1.542   9.307   4.717
   30LIG    HB1  443   1.610   9.381   4.669
   30LIG    HB2  444   1.491   9.251   4.636
   30LIG     CG  445   1.627   9.204   4.791
   30LIG    OD1  446   1.737   9.168   4.743
   30LIG    OD2  447   1.575   9.146   4.890
   30LIG      C  448   1.495   9.514   4.868
   30LIG    OT1  449   1.433   9.621   4.840
   30LIG    OT2  450   1.596   9.513   4.942
   31LIG      N  451   6.360   9.547   6.985
   31LIG     H1  452   6.341   9.645   6.955
   31LIG     H2  453   6.462   9.528   6.983
   31LIG     H3  454   6.307   9.483   6.923
   31LIG     CA  455   6.311   9.528   7.125
   31LIG     HA  456   6.374   9.591   7.187
   31LIG     CB  457   6.163   9.574   7.128
   31LIG    HB1  458   6.095   9.492   7.097
   31LIG    HB2  459   6.145   9.661   7.060
   31LIG     CG  460   6.122   9.622   7.265
   31LIG    OD1  461   6.211   9.669   7.341
   31LIG    OD2  462   6.000   9.623   7.295
   31LIG      C  463   6.328   9.381   7.176
   31LIG    OT1  464   6.373   9.293   7.097
   31LIG    OT2  465   6.294   9.352   7.293
   32LIG      N  466   4.172   1.592   5.136
   32LIG     H1  467   4.134   1.495   5.138
   32LIG     H2  468   4.232   1.606   5.052
   32LIG     H3  469   4.231   1.602   5.221
   32LIG     CA  470   4.063   1.693   5.133
   32LIG     HA  471   3.977   1.647   5.085
   32LIG     CB  472   4.031   1.726   5.282
   32LIG    HB1  473   4.124   1.748   5.338
   32LIG    HB2  474   3.983   1.638   5.329
   32LIG     CG  475   3.936   1.843   5.299
   32LIG    OD1  476   3.975   1.939   5.373
   32LIG    OD2  477   3.824   1.844   5.242
   32LIG      C  478   4.101   1.816   5.045
   32LIG    OT1  479   4.221   1.837   5.011
   32LIG    OT2  480   4.009   1.893   5.008
   33LIG      N  481   8.453   3.978   6.191
   33LIG     H1  482   8.508   3.893   6.164
   33LIG     H2  483   8.521   4.054   6.212
   33LIG     H3  484   8.401   3.959   6.279
   33LIG     CA  485   8.353   4.020   6.090
   33LIG     HA  486   8.403   4.071   6.009
   33LIG     CB  487   8.286   3.887   6.043
   33LIG    HB1  488   8.230   3.839   6.126
   33LIG    HB2  489   8.364   3.817   6.007
   33LIG     CG  490   8.191   3.907   5.926
   33LIG    OD1  491   8.092   3.829   5.918
   33LIG    OD2  492   8.220   3.989   5.836
   33LIG      C  493   8.251   4.117   6.158
   33LIG    OT1  494   8.233   4.105   6.283
   33LIG    OT2  495   8.193   4.206   6.090
   34LIG      N  496   9.722   5.759   2.632
   34LIG     H1  497   9.777   5.671   2.640
   34LIG     H2  498   9.687   5.759   2.534
   34LIG     H3  499   9.789   5.839   2.636
   34LIG     CA  500   9.615   5.769   2.734
   34LIG     HA  501   9.551   5.683   2.721
   34LIG     CB  502   9.688   5.766   2.872
   34LIG    HB1  503   9.744   5.860   2.889
   34LIG    HB2  504   9.758   5.680   2.875
   34LIG     CG  505   9.591   5.744   2.987
   34LIG    OD1  506   9.615   5.803   3.095
   34LIG    OD2  507   9.499   5.660   2.974
   34LIG      C  508   9.527   5.897   2.719
   34LIG    OT1  509   9.564   5.992   2.646
   34LIG    OT2  510   9.417   5.902   2.781
   35LIG      N  511   0.276   1.145   6.118
   35LIG     H1  512   0.190   1.203   6.107
   35LIG     H2  513   0.274   1.067   6.049
   35LIG     H3  514   0.275   1.102   6.213
   35LIG     CA  515   0.396   1.230   6.090
   35LIG     HA  516   0.358   1.322   6.048
   35LIG     CB  517   0.469   1.256   6.225
   35LIG    HB1  518   0.543   1.177   6.245
   35LIG    HB2  519   0.397   1.259   6.310
   35LIG     CG  520   0.539   1.390   6.226
   35LIG    OD1  521   0.613   1.415   6.326
   35LIG    OD2  522   0.517   1.476   6.136
   35LIG      C  523   0.489   1.170   5.979
   35LIG    OT1  524   0.457   1.062   5.924
   35LIG    OT2  525   0.594   1.232   5.946
   36LIG      N  526   9.070   3.012   7.598
   36LIG     H1  527   9.145   3.075   7.633
   36LIG     H2  528   9.112   2.943   7.533
   36LIG     H3  529   8.995   3.066   7.550
   36LIG     CA  530   8.999   2.937   7.706
   36LIG     HA  531   9.041   2.838   7.712
   36LIG     CB  532   9.022   3.018   7.838
   36LIG    HB1  533   8.955   3.107   7.842
   36LIG    HB2  534   9.127   3.054   7.842
   36LIG     CG  535   9.003   2.937   7.964
   36LIG    OD1  536   8.954   2.822   7.959
   36LIG    OD2  537   9.035   2.992   8.073
   36LIG      C  538   8.850   2.929   7.661
   36LIG    OT1  539   8.801   3.021   7.590
   36LIG    OT2  540   8.783   2.827   7.691
   37LIG      N  541   6.744   7.917   4.589
   37LIG     H1  542   6.835   7.956   4.558
   37LIG     H2  543   6.755   7.819   4.623
   37LIG     H3  544   6.677   7.915   4.510
   37LIG     CA  545   6.688   8.000   4.699
   37LIG     HA  546   6.769   8.022   4.768
   37LIG     CB  547   6.638   8.129   4.631
   37LIG    HB1  548   6.546   8.110   4.570
   37LIG    HB2  549   6.716   8.172   4.564
   37LIG     CG  550   6.608   8.236   4.733
   37LIG    OD1  551   6.509   8.310   4.711
   37LIG    OD2  552   6.687   8.251   4.829
   37LIG      C  553   6.576   7.927   4.780
   37LIG    OT1  554   6.534   7.814   4.744
   37LIG    OT2  555   6.532   7.982   4.884
   38LIG      N  556   7.438   1.754   6.589
   38LIG     H1  557   7.477   1.731   6.496
   38LIG     H2  558   7.514   1.782   6.654
   38LIG     H3  559   7.394   1.667   6.627
   38LIG     CA  560   7.330   1.857   6.584
   38LIG     HA  561   7.381   1.950   6.562
   38LIG     CB  562   7.229   1.819   6.471
   38LIG    HB1  563   7.142   1.765   6.514
   38LIG    HB2  564   7.276   1.753   6.395
   38LIG     CG  565   7.180   1.940   6.394
   38LIG    OD1  566   7.087   1.923   6.311
   38LIG    OD2  567   7.240   2.050   6.405
   38LIG      C  568   7.265   1.875   6.725
   38LIG    OT1  569   7.329   1.836   6.827
   38LIG    OT2  570   7.153   1.929   6.736
   39LIG      N  571   8.884   7.821   4.147
   39LIG     H1  572   8.881   7.728   4.194
   39LIG     H2  573   8.836   7.814   4.055
   39LIG     H3  574   8.983   7.849   4.129
   39LIG     CA  575   8.815   7.924   4.229
   39LIG     HA  576   8.710   7.906   4.214
   39LIG     CB  577   8.851   7.903   4.378
   39LIG    HB1  578   8.948   7.952   4.402
   39LIG    HB2  579   8.859   7.795   4.403
   39LIG     CG  580   8.743   7.959   4.468
   39LIG    OD1  581   8.771   7.975   4.589
   39LIG    OD2  582   8.626   7.972   4.423
   39LIG      C  583   8.845   8.070   4.180
   39LIG    OT1  584   8.929   8.088   4.089
   39LIG    OT2  585   8.780   8.164   4.230
   40LIG      N  586   9.164   5.902   0.996
   40LIG     H1  587   9.075   5.922   1.046
   40LIG     H2  588   9.244   5.913   1.061
   40LIG     H3  589   9.176   5.971   0.920
   40LIG     CA  590   9.162   5.763   0.943
   40LIG     HA  591   9.102   5.704   1.010
   40LIG     CB  592   9.098   5.772   0.801
   40LIG    HB1  593   9.169   5.822   0.731
   40LIG    HB2  594   9.005   5.834   0.806
   40LIG     CG  595   9.055   5.640   0.740
   40LIG    OD1  596   9.060   5.630   0.615
   40LIG    OD2  597   8.998   5.554   0.812
   40LIG      C  598   9.305   5.702   0.944
   40LIG    OT1  599   9.406   5.776   0.959
   40LIG    OT2  600   9.315   5.576   0.939
   41LIG      N  601   8.900   4.440   7.343
   41LIG     H1  602   8.985   4.409   7.291
   41LIG     H2  603   8.892   4.544   7.340
   41LIG     H3  604   8.906   4.408   7.442
   41LIG     CA  605   8.775   4.383   7.283
   41LIG     HA  606   8.758   4.434   7.189
   41LIG     CB  607   8.806   4.233   7.262
   41LIG    HB1  608   8.810   4.179   7.360
   41LIG    HB2  609   8.904   4.221   7.211
   41LIG     CG  610   8.707   4.163   7.172
   41LIG    OD1  611   8.683   4.042   7.195
   41LIG    OD2  612   8.664   4.223   7.070
   41LIG      C  613   8.651   4.406   7.375
   41LIG    OT1  614   8.667   4.448   7.493
   41LIG    OT2  615   8.535   4.383   7.332
   42LIG      N  616   9.524   4.069   2.959
   42LIG     H1  617   9.459   4.027   2.890
   42LIG     H2  618   9.505   4.027   3.053
   42LIG     H3  619   9.515   4.172   2.966
   42LIG     CA  620   9.666   4.036   2.925
   42LIG     HA  621   9.679   3.929   2.930
   42LIG     CB  622   9.697   4.092   2.783
   42LIG    HB1  623   9.807   4.085   2.765
   42LIG    HB2  624   9.667   4.198   2.772
   42LIG     CG  625   9.630   4.008   2.678
   42LIG    OD1  626   9.618   3.884   2.701
   42LIG    OD2  627   9.595   4.061   2.570
   42LIG      C  628   9.761   4.101   3.028
   42LIG    OT1  629   9.732   4.212   3.081
   42LIG    OT2  630   9.865   4.038   3.060
   43LIG      N  631   0.956   7.268   1.945
   43LIG     H1  632   0.984   7.367   1.929
   43LIG     H2  633   0.993   7.213   1.865
   43LIG     H3  634   0.852   7.261   1.946
   43LIG     CA  635   1.019   7.214   2.071
   43LIG     HA  636   1.035   7.298   2.138
   43LIG     CB  637   0.916   7.115   2.133
   43LIG    HB1  638   0.920   7.019   2.077
   43LIG    HB2  639   0.812   7.155   2.125
   43LIG     CG  640   0.936   7.086   2.281
   43LIG    OD1  641   0.864   6.994   2.330
   43LIG    OD2  642   1.012   7.157   2.351
   43LIG      C  643   1.158   7.149   2.041
   43LIG    OT1  644   1.195   7.136   1.920
   43LIG    OT2  645   1.233   7.113   2.135
   44LIG      N  646   1.338   9.872   7.035
   44LIG     H1  647   1.374   9.832   7.124
   44LIG     H2  648   1.249   9.923   7.052
   44LIG     H3  649   1.321   9.795   6.967
   44LIG     CA  650   1.444   9.954   6.970
   44LIG     HA  651   1.402   0.051   6.946
   44LIG     CB  652   1.562   9.964   7.071
   44LIG    HB1  653   1.610   9.865   7.085
   44LIG    HB2  654   1.523   0.001   7.169
   44LIG     CG  655   1.667   0.064   7.028
   44LIG    OD1  656   1.786   0.039   7.060
   44LIG    OD2  657   1.631   0.173   6.975
   44LIG      C  658   1.486   9.885   6.838
   44LIG    OT1  659   1.435   9.773   6.809
   44LIG    OT2  660   1.569   9.942   6.762
   45LIG      N  661   0.248   1.426   4.032
   45LIG     H1  662   0.202   1.346   3.984
   45LIG     H2  663   0.336   1.398   4.080
   45LIG     H3  664   0.183   1.467   4.102
   45LIG     CA  665   0.283   1.536   3.938
   45LIG     HA  666   0.387   1.522   3.913
   45LIG     CB  667   0.196   1.523   3.809
   45LIG    HB1  668   0.099   1.575   3.819
   45LIG    HB2  669   0.177   1.416   3.784
   45LIG     CG  670   0.274   1.578   3.691
   45LIG    OD1  671   0.212   1.644   3.604
   45LIG    OD2  672   0.396   1.549   3.681
   45LIG      C  673   0.270   1.675   4.008
   45LIG    OT1  674   0.241   1.679   4.131
   45LIG    OT2  675   0.296   1.779   3.943
   46LIG      N  676   1.496   1.310   6.841
   46LIG     H1  677   1.437   1.280   6.921
   46LIG     H2  678   1.437   1.367   6.777
   46LIG     H3  679   1.530   1.227   6.788
   46LIG     CA  680   1.610   1.395   6.885
   46LIG     HA  681   1.612   1.397   6.993
   46LIG     CB  682   1.739   1.329   6.827
   46LIG    HB1  683   1.741   1.336   6.716
   46LIG    HB2  684   1.742   1.222   6.855
   46LIG     CG  685   1.864   1.390   6.883
   46LIG    OD1  686   1.962   1.405   6.806
   46LIG    OD2  687   1.871   1.413   7.007
   46LIG      C  688   1.589   1.541   6.834
   46LIG    OT1  689   1.497   1.564   6.751
   46LIG    OT2  690   1.660   1.634   6.880
   47LIG      N  691   1.951   0.843   4.441
   47LIG     H1  692   2.024   0.903   4.485
   47LIG     H2  693   1.970   0.825   4.340
   47LIG     H3  694   1.860   0.892   4.450
   47LIG     CA  695   1.943   0.712   4.512
   47LIG     HA  696   2.045   0.682   4.532
   47LIG     CB  697   1.859   0.737   4.641
   47LIG    HB1  698   1.751   0.727   4.620
   47LIG    HB2  699   1.878   0.838   4.684
   47LIG     CG  700   1.896   0.639   4.750
   47LIG    OD1  701   1.817   0.623   4.846
   47LIG    OD2  702   2.012   0.591   4.751
   47LIG      C  703   1.882   0.602   4.423
   47LIG    OT1  704   1.833   0.635   4.312
   47LIG    OT2  705   1.884   0.482   4.462
   48LIG      N  706   4.970   4.153   9.546
   48LIG     H1  707   4.925   4.236   9.502
   48LIG     H2  708   4.986   4.168   9.648
   48LIG     H3  709   5.061   4.134   9.501
   48LIG     CA  710   4.881   4.035   9.527
   48LIG     HA  711   4.789   4.060   9.579
   48LIG     CB  712   4.861   4.014   9.374
   48LIG    HB1  713   4.905   3.917   9.340
   48LIG    HB2  714   4.911   4.094   9.314
   48LIG     CG  715   4.716   4.015   9.334
   48LIG    OD1  716   4.692   4.015   9.210
   48LIG    OD2  717   4.624   4.014   9.420
   48LIG      C  718   4.937   3.906   9.590
   48LIG    OT1  719   5.055   3.903   9.633
   48LIG    OT2  720   4.860   3.807   9.600
   49LIG      N  721   6.028   1.568   6.505
   49LIG     H1  722   6.068   1.490   6.448
   49LIG     H2  723   6.105   1.636   6.520
   49LIG     H3  724   5.998   1.533   6.599
   49LIG     CA  725   5.917   1.633   6.431
   49LIG     HA  726   5.965   1.687   6.350
   49LIG     CB  727   5.822   1.522   6.377
   49LIG    HB1  728   5.735   1.505   6.444
   49LIG    HB2  729   5.874   1.425   6.364
   49LIG     CG  730   5.775   1.563   6.240
   49LIG    OD1  731   5.653   1.581   6.218
   49LIG    OD2  732   5.861   1.577   6.149
   49LIG      C  733   5.837   1.738   6.516
   49LIG    OT1  734   5.855   1.744   6.641
   49LIG    OT2  735   5.756   1.815   6.459
   50LIG      N  736   6.673   0.337   3.165
   50LIG     H1  737   6.600   0.402   3.132
   50LIG     H2  738   6.686   0.349   3.267
   50LIG     H3  739   6.764   0.354   3.117
   50LIG     CA  740   6.627   0.198   3.136
   50LIG     HA  741   6.537   0.183   3.193
   50LIG     CB  742   6.602   0.190   2.983
   50LIG    HB1  743   6.697   0.175   2.927
   50LIG    HB2  744   6.555   0.283   2.945
   50LIG     CG  745   6.505   0.079   2.951
   50LIG    OD1  746   6.518   0.017   2.842
   50LIG    OD2  747   6.406   0.062   3.027
   50LIG      C  748   6.730   0.090   3.183
   50LIG    OT1  749   6.845   0.125   3.220
   50LIG    OT2  750   6.695   9.969   3.185
   51LIG      N  751   8.145   6.672   8.027
   51LIG     H1  752   8.098   6.753   8.071
   51LIG     H2  753   8.232   6.649   8.079
   51LIG     H3  754   8.169   6.695   7.928
   51LIG     CA  755   8.057   6.551   8.028
   51LIG     HA  756   8.071   6.503   8.123
   51LIG     CB  757   7.911   6.598   8.006
   51LIG    HB1  758   7.890   6.621   7.900
   51LIG    HB2  759   7.890   6.689   8.067
   51LIG     CG  760   7.815   6.493   8.057
   51LIG    OD1  761   7.709   6.469   7.993
   51LIG    OD2  762   7.837   6.445   8.171
   51LIG      C  763   8.099   6.451   7.917
   51LIG    OT1  764   8.177   6.489   7.825
   51LIG    OT2  765   8.053   6.334   7.920
   52LIG      N  766   9.707   4.954   7.764
   52LIG     H1  767   9.807   4.966   7.737
   52LIG     H2  768   9.685   4.853   7.773
   52LIG     H3  769   9.646   4.993   7.689
   52LIG     CA  770   9.681   5.027   7.892
   52LIG     HA  771   9.745   4.981   7.966
   52LIG     CB  772   9.720   5.176   7.869
   52LIG    HB1  773   9.634   5.231   7.825
   52LIG    HB2  774   9.807   5.185   7.800
   52LIG     CG  775   9.763   5.248   7.995
   52LIG    OD1  776   9.769   5.374   7.991
   52LIG    OD2  777   9.811   5.182   8.091
   52LIG      C  778   9.534   5.011   7.941
   52LIG    OT1  779   9.453   4.947   7.869
   52LIG    OT2  780   9.500   5.061   8.051
   53LIG      N  781   0.107   2.713   6.636
   53LIG     H1  782   0.144   2.706   6.539
   53LIG     H2  783   0.140   2.801   6.680
   53LIG     H3  784   0.138   2.632   6.693
   53LIG     CA  785   9.958   2.715   6.642
   53LIG     HA  786   9.929   2.819   6.637
   53LIG     CB  787   9.903   2.635   6.521
   53LIG    HB1  788   9.888   2.528   6.546
   53LIG    HB2  789   9.970   2.641   6.433
   53LIG     CG  790   9.772   2.696   6.478
   53LIG    OD1  791   9.666   2.628   6.482
   53LIG    OD2  792   9.773   2.815   6.435
   53LIG      C  793   9.907   2.657   6.777
   53LIG    OT1  794   9.988   2.598   6.854
   53LIG    OT2  795   9.787   2.670   6.809
   54LIG      N  796   9.270   6.226   5.433
   54LIG     H1  797   9.307   6.136   5.396
   54LIG     H2  798   9.266   6.296   5.357
   54LIG     H3  799   9.331   6.261   5.510
   54LIG     CA  800   9.132   6.204   5.484
   54LIG     HA  801   9.084   6.136   5.415
   54LIG     CB  802   9.146   6.141   5.625
   54LIG    HB1  803   9.178   6.215   5.700
   54LIG    HB2  804   9.222   6.059   5.623
   54LIG     CG  805   9.017   6.075   5.667
   54LIG    OD1  806   8.982   6.089   5.787
   54LIG    OD2  807   8.956   6.003   5.584
   54LIG      C  808   9.046   6.334   5.483
   54LIG    OT1  809   9.094   6.441   5.437
   54LIG    OT2  810   8.927   6.328   5.524
   55LIG      N  811   0.339   3.879   9.207
   55LIG     H1  812   0.373   3.873   9.306
   55LIG     H2  813   0.315   3.978   9.185
   55LIG     H3  814   0.255   3.821   9.192
   55LIG     CA  815   0.446   3.828   9.118
   55LIG     HA  816   0.532   3.892   9.135
   55LIG     CB  817   0.476   3.680   9.153
   55LIG    HB1  818   0.463   3.613   9.065
   55LIG    HB2  819   0.409   3.641   9.233
   55LIG     CG  820   0.617   3.663   9.205
   55LIG    OD1  821   0.669   3.548   9.198
   55LIG    OD2  822   0.670   3.759   9.265
   55LIG      C  823   0.411   3.848   8.968
   55LIG    OT1  824   0.306   3.911   8.936
   55LIG    OT2  825   0.495   3.810   8.881
   56LIG      N  826   3.416   8.603   1.083
   56LIG     H1  827   3.455   8.670   1.152
   56LIG     H2  828   3.490   8.565   1.021
   56LIG     H3  829   3.346   8.656   1.026
   56LIG     CA  830   3.350   8.493   1.159
   56LIG     HA  831   3.412   8.479   1.247
   56LIG     CB  832   3.207   8.539   1.198
   56LIG    HB1  833   3.133   8.506   1.122
   56LIG    HB2  834   3.201   8.649   1.207
   56LIG     CG  835   3.166   8.487   1.334
   56LIG    OD1  836   3.044   8.492   1.364
   56LIG    OD2  837   3.253   8.451   1.417
   56LIG      C  838   3.357   8.357   1.082
   56LIG    OT1  839   3.431   8.348   0.981
   56LIG    OT2  840   3.295   8.257   1.126
   57LIG      N  841   3.315   0.307   5.825
   57LIG     H1  842   3.261   0.336   5.740
   57LIG     H2  843   3.324   0.203   5.821
   57LIG     H3  844   3.258   0.330   5.908
   57LIG     CA  845   3.448   0.373   5.838
   57LIG     HA  846   3.509   0.337   5.756
   57LIG     CB  847   3.424   0.526   5.828
   57LIG    HB1  848   3.384   0.565   5.924
   57LIG    HB2  849   3.350   0.550   5.748
   57LIG     CG  850   3.549   0.604   5.793
   57LIG    OD1  851   3.549   0.728   5.813
   57LIG    OD2  852   3.643   0.546   5.732
   57LIG      C  853   3.519   0.333   5.970
   57LIG    OT1  854   3.458   0.265   6.057
   57LIG    OT2  855   3.638   0.368   5.989
   58LIG      N  856   0.440   4.828   6.779
   58LIG     H1  857   0.400   4.912   6.733
   58LIG     H2  858   0.437   4.748   6.712
   58LIG     H3  859   0.383   4.801   6.862
   58LIG     CA  860   0.580   4.853   6.824
   58LIG     HA  861   0.636   4.882   6.736
   58LIG     CB  862   0.577   4.967   6.931
   58LIG    HB1  863   0.581   4.926   7.034
   58LIG    HB2  864   0.484   5.028   6.923
   58LIG     CG  865   0.690   5.065   6.911
   58LIG    OD1  866   0.739   5.122   7.011
   58LIG    OD2  867   0.720   5.101   6.794
   58LIG      C  868   0.649   4.726   6.882
   58LIG    OT1  869   0.582   4.619   6.889
   58LIG    OT2  870   0.770   4.730   6.916
   59LIG      N  871   5.403   0.017   0.771
   59LIG     H1  872   5.451   0.040   0.681
   59LIG     H2  873   5.422   0.092   0.840
   59LIG     H3  874   5.437   9.927   0.809
   59LIG     CA  875   5.255   0.015   0.754
   59LIG     HA  876   5.227   0.116   0.730
   59LIG     CB  877   5.220   9.915   0.639
   59LIG    HB1  878   5.171   9.823   0.679
   59LIG    HB2  879   5.310   9.884   0.582
   59LIG     CG  880   5.129   9.985   0.540
   59LIG    OD1  881   5.027   9.925   0.499
   59LIG    OD2  882   5.168   0.095   0.494
   59LIG      C  883   5.184   9.981   0.888
   59LIG    OT1  884   5.253   9.960   0.991
   59LIG    OT2  885   5.058   9.975   0.891
   60LIG      N  886   5.257   7.663   0.404
   60LIG     H1  887   5.234   7.700   0.499
   60LIG     H2  888   5.229   7.737   0.336
   60LIG     H3  889   5.194   7.582   0.385
   60LIG     CA  890   5.398   7.620   0.395
   60LIG     HA  891   5.461   7.708   0.397
   60LIG     CB  892   5.418   7.528   0.520
   60LIG    HB1  893   5.379   7.426   0.500
   60LIG    HB2  894   5.365   7.569   0.608
   60LIG     CG  895   5.563   7.522   0.562
   60LIG    OD1  896   5.617   7.410   0.580
   60LIG    OD2  897   5.620   7.630   0.592
   60LIG      C  898   5.427   7.539   0.264
   60LIG    OT1  899   5.332   7.483   0.203
   60LIG    OT2  900   5.545   7.532   0.221
   61LIG      N  901   1.382   3.684   3.261
   61LIG     H1  902   1.411   3.610   3.328
   61LIG     H2  903   1.296   3.727   3.302
   61LIG     H3  904   1.356   3.639   3.171
   61LIG     CA  905   1.484   3.792   3.245
   61LIG     HA  906   1.579   3.742   3.232
   61LIG     CB  907   1.447   3.870   3.116
   61LIG    HB1  908   1.360   3.937   3.135
   61LIG    HB2  909   1.421   3.801   3.033
   61LIG     CG  910   1.564   3.953   3.068
   61LIG    OD1  911   1.539   4.047   2.988
   61LIG    OD2  912   1.681   3.924   3.103
   61LIG      C  913   1.496   3.881   3.373
   61LIG    OT1  914   1.452   3.836   3.482
   61LIG    OT2  915   1.551   3.995   3.368
   62LIG      N  916   4.230   1.624   9.116
   62LIG     H1  917   4.130   1.606   9.139
   62LIG     H2  918   4.289   1.553   9.164
   62LIG     H3  919   4.257   1.719   9.149
   62LIG     CA  920   4.256   1.613   8.969
   62LIG     HA  921   4.183   1.544   8.929
   62LIG     CB  922   4.243   1.755   8.907
   62LIG    HB1  923   4.335   1.815   8.923
   62LIG    HB2  924   4.157   1.809   8.952
   62LIG     CG  925   4.212   1.745   8.759
   62LIG    OD1  926   4.288   1.802   8.677
   62LIG    OD2  927   4.105   1.688   8.726
   62LIG      C  928   4.397   1.554   8.939
   62LIG    OT1  929   4.471   1.521   9.035
   62LIG    OT2  930   4.435   1.539   8.820
   63LIG      N  931   8.147   3.072   1.408
   63LIG     H1  932   8.168   2.995   1.475
   63LIG     H2  933   8.207   3.154   1.429
   63LIG     H3  934   8.048   3.100   1.420
   63LIG     CA  935   8.176   3.036   1.266
   63LIG     HA  936   8.244   2.952   1.268
   63LIG     CB  937   8.040   3.002   1.199
   63LIG    HB1  938   7.990   3.094   1.162
   63LIG    HB2  939   7.972   2.950   1.269
   63LIG     CG  940   8.056   2.906   1.082
   63LIG    OD1  941   7.965   2.905   0.995
   63LIG    OD2  942   8.150   2.821   1.085
   63LIG      C  943   8.250   3.156   1.199
   63LIG    OT1  944   8.271   3.261   1.266
   63LIG    OT2  945   8.290   3.144   1.081
   64LIG      N  946   9.033   6.290   5.958
   64LIG     H1  947   9.043   6.261   5.858
   64LIG     H2  948   9.056   6.206   6.014
   64LIG     H3  949   8.933   6.313   5.973
   64LIG     CA  950   9.116   6.407   5.997
   64LIG     HA  951   9.198   6.368   6.055
   64LIG     CB  952   9.163   6.481   5.868
   64LIG    HB1  953   9.090   6.560   5.838
   64LIG    HB2  954   9.176   6.413   5.782
   64LIG     CG  955   9.299   6.547   5.888
   64LIG    OD1  956   9.342   6.624   5.799
   64LIG    OD2  957   9.369   6.511   5.987
   64LIG      C  958   9.034   6.503   6.088
   64LIG    OT1  959   8.910   6.484   6.105
   64LIG    OT2  960   9.093   6.599   6.143
   65LIG      N  961   7.838   7.161   2.830
   65LIG     H1  962   7.891   7.101   2.762
   65LIG     H2  963   7.842   7.260   2.797
   65LIG     H3  964   7.887   7.156   2.921
   65LIG     CA  965   7.699   7.110   2.842
   65LIG     HA  966   7.668   7.078   2.743
   65LIG     CB  967   7.707   6.990   2.940
   65LIG    HB1  968   7.724   7.025   3.044
   65LIG    HB2  969   7.791   6.922   2.911
   65LIG     CG  970   7.582   6.905   2.933
   65LIG    OD1  971   7.513   6.889   3.037
   65LIG    OD2  972   7.553   6.851   2.823
   65LIG      C  973   7.597   7.220   2.888
   65LIG    OT1  974   7.641   7.333   2.921
   65LIG    OT2  975   7.474   7.194   2.891
   66LIG      N  976   4.098   9.043   1.646
   66LIG     H1  977   4.058   9.107   1.718
   66LIG     H2  978   4.140   9.100   1.570
   66LIG     H3  979   4.022   8.983   1.609
   66LIG     CA  980   4.200   8.951   1.706
   66LIG     HA  981   4.296   8.977   1.664
   66LIG     CB  982   4.195   8.976   1.861
   66LIG    HB1  983   4.108   8.922   1.904
   66LIG    HB2  984   4.181   9.084   1.881
   66LIG     CG  985   4.319   8.934   1.938
   66LIG    OD1  986   4.366   8.818   1.931
   66LIG    OD2  987   4.366   9.018   2.019
   66LIG      C  988   4.165   8.805   1.664
   66LIG    OT1  989   4.045   8.776   1.636
   66LIG    OT2  990   4.257   8.720   1.655
   67LIG      N  991   9.222   7.632   3.747
   67LIG     H1  992   9.307   7.675   3.706
   67LIG     H2  993   9.137   7.677   3.708
   67LIG     H3  994   9.225   7.644   3.851
   67LIG     CA  995   9.215   7.485   3.717
   67LIG     HA  996   9.231   7.476   3.611
   67LIG     CB  997   9.328   7.416   3.798
   67LIG    HB1  998   9.297   7.396   3.903
   67LIG    HB2  999   9.419   7.480   3.800
   67LIG     CG 1000   9.372   7.288   3.731
   67LIG    OD1 1001   9.392   7.187   3.802
   67LIG    OD2 1002   9.397   7.291   3.608
   67LIG      C 1003   9.075   7.423   3.746
   67LIG    OT1 1004   8.982   7.497   3.787
   67LIG    OT2 1005   9.058   7.300   3.725
   68LIG      N 1006   0.628   2.216   3.461
   68LIG     H1 1007   0.535   2.185   3.496
   68LIG     H2 1008   0.636   2.206   3.357
   68LIG     H3 1009   0.702   2.161   3.508
   68LIG     CA 1010   0.647   2.360   3.494
   68LIG     HA 1011   0.554   2.409   3.471
   68LIG     CB 1012   0.680   2.370   3.647
   68LIG    HB1 1013   0.788   2.388   3.663
   68LIG    HB2 1014   0.653   2.276   3.700
   68LIG     CG 1015   0.598   2.478   3.713
   68LIG    OD1 1016   0.655   2.573   3.771
   68LIG    OD2 1017   0.472   2.465   3.714
   68LIG      C 1018   0.756   2.425   3.404
   68LIG    OT1 1019   0.802   2.360   3.306
   68LIG    OT2 1020   0.795   2.543   3.428
   69LIG      N 1021   6.649   5.582   9.262
   69LIG     H1 1022   6.627   5.485   9.232
   69LIG     H2 1023   6.742   5.606   9.220
   69LIG     H3 1024   6.656   5.587   9.366
   69LIG     CA 1025   6.551   5.676   9.203
   69LIG     HA 1026   6.466   5.615   9.175
   69LIG     CB 1027   6.514   5.785   9.308
   69LIG    HB1 1028   6.585   5.871   9.305
   69LIG    HB2 1029   6.513   5.744   9.411
   69LIG     CG 1030   6.373   5.836   9.282
   69LIG    OD1 1031   6.338   5.949   9.322
   69LIG    OD2 1032   6.290   5.754   9.235
   69LIG      C 1033   6.608   5.738   9.071
   69LIG    OT1 1034   6.728   5.714   9.038
   69LIG    OT2 1035   6.531   5.805   8.997
   70LIG      N 1036   4.673   0.064   7.863
   70LIG     H1 1037   4.655   9.983   7.800
   70LIG     H2 1038   4.684   0.151   7.807
   70LIG     H3 1039   4.758   0.047   7.920
   70LIG     CA 1040   4.553   0.087   7.947
   70LIG     HA 1041   4.491   9.999   7.943
   70LIG     CB 1042   4.608   0.112   8.091
   70LIG    HB1 1043   4.637   0.219   8.104
   70LIG    HB2 1044   4.698   0.049   8.110
   70LIG     CG 1045   4.510   0.075   8.200
   70LIG    OD1 1046   4.387   0.079   8.180
   70LIG    OD2 1047   4.561   0.050   8.312
   70LIG      C 1048   4.474   0.207   7.886
   70LIG    OT1 1049   4.533   0.286   7.807
   70LIG    OT2 1050   4.350   0.218   7.909
   71LIG      N 1051   9.523   8.549   3.767
   71LIG     H1 1052   9.587   8.602   3.704
   71LIG     H2 1053   9.447   8.509   3.708
   71LIG     H3 1054   9.479   8.616   3.833
   71LIG     CA 1055   9.588   8.438   3.843
   71LIG     HA 1056   9.642   8.378   3.771
   71LIG     CB 1057   9.686   8.501   3.945
   71LIG    HB1 1058   9.632   8.546   4.031
   71LIG    HB2 1059   9.748   8.580   3.897
   71LIG     CG 1060   9.783   8.396   3.995
   71LIG    OD1 1061   9.800   8.385   4.120
   71LIG    OD2 1062   9.845   8.326   3.911
   71LIG      C 1063   9.483   8.344   3.911
   71LIG    OT1 1064   9.360   8.367   3.896
   71LIG    OT2 1065   9.521   8.247   3.982
   72LIG      N 1066   0.158   8.269   7.503
   72LIG     H1 1067   0.097   8.201   7.554
   72LIG     H2 1068   0.109   8.310   7.421
   72LIG     H3 1069   0.242   8.217   7.471
   72LIG     CA 1070   0.204   8.367   7.604
   72LIG     HA 1071   0.249   8.449   7.551
   72LIG     CB 1072   0.081   8.409   7.691
   72LIG    HB1 1073   0.101   8.391   7.799
   72LIG    HB2 1074   9.989   8.353   7.665
   72LIG     CG 1075   0.047   8.557   7.677
   72LIG    OD1 1076   0.129   8.635   7.624
   72LIG    OD2 1077   9.938   8.596   7.726
   72LIG      C 1078   0.318   8.302   7.688
   72LIG    OT1 1079   0.353   8.182   7.668
   72LIG    OT2 1080   0.375   8.371   7.776
   73LIG      N 1081   8.583   8.106   9.504
   73LIG     H1 1082   8.527   8.117   9.592
   73LIG     H2 1083   8.679   8.073   9.526
   73LIG     H3 1084   8.591   8.197   9.456
   73LIG     CA 1085   8.525   8.006   9.410
   73LIG     HA 1086   8.471   7.934   9.470
   73LIG     CB 1087   8.432   8.084   9.312
   73LIG    HB1 1088   8.492   8.145   9.242
   73LIG    HB2 1089   8.365   8.151   9.370
   73LIG     CG 1090   8.343   7.990   9.235
   73LIG    OD1 1091   8.328   8.007   9.111
   73LIG    OD2 1092   8.277   7.904   9.299
   73LIG      C 1093   8.639   7.930   9.335
   73LIG    OT1 1094   8.758   7.969   9.352
   73LIG    OT2 1095   8.611   7.833   9.260
   74LIG      N 1096   0.608   3.234   6.338
   74LIG     H1 1097   0.569   3.294   6.263
   74LIG     H2 1098   0.562   3.141   6.335
   74LIG     H3 1099   0.594   3.277   6.432
   74LIG     CA 1100   0.754   3.220   6.311
   74LIG     HA 1101   0.765   3.182   6.211
   74LIG     CB 1102   0.814   3.362   6.329
   74LIG    HB1 1103   0.828   3.386   6.436
   74LIG    HB2 1104   0.747   3.439   6.285
   74LIG     CG 1105   0.944   3.376   6.254
   74LIG    OD1 1106   1.041   3.435   6.309
   74LIG    OD2 1107   0.946   3.342   6.133
   74LIG      C 1108   0.825   3.121   6.408
   74LIG    OT1 1109   0.767   3.086   6.514
   74LIG    OT2 1110   0.938   3.076   6.377
   75LIG      N 1111   5.519   8.024   9.313
   75LIG     H1 1112   5.612   7.998   9.274
   75LIG     H2 1113   5.502   8.125   9.297
   75LIG     H3 1114   5.520   8.008   9.416
   75LIG     CA 1115   5.411   7.936   9.260
   75LIG     HA 1116   5.338   7.998   9.211
   75LIG     CB 1117   5.477   7.832   9.164
   75LIG    HB1 1118   5.528   7.751   9.220
   75LIG    HB2 1119   5.552   7.883   9.100
   75LIG     CG 1120   5.377   7.772   9.068
   75LIG    OD1 1121   5.375   7.648   9.049
   75LIG    OD2 1122   5.312   7.852   8.995
   75LIG      C 1123   5.343   7.862   9.378
   75LIG    OT1 1124   5.399   7.863   9.492
   75LIG    OT2 1125   5.235   7.800   9.358
   76LIG      N 1126   0.581   3.741   4.993
   76LIG     H1 1127   0.493   3.687   4.989
   76LIG     H2 1128   0.582   3.806   5.073
   76LIG     H3 1129   0.587   3.796   4.905
   76LIG     CA 1130   0.700   3.650   5.002
   76LIG     HA 1131   0.686   3.587   5.088
   76LIG     CB 1132   0.706   3.563   4.872
   76LIG    HB1 1133   0.803   3.510   4.869
   76LIG    HB2 1134   0.697   3.625   4.780
   76LIG     CG 1135   0.599   3.456   4.874
   76LIG    OD1 1136   0.569   3.402   4.983
   76LIG    OD2 1137   0.551   3.417   4.765
   76LIG      C 1138   0.834   3.725   5.026
   76LIG    OT1 1139   0.837   3.850   5.035
   76LIG    OT2 1140   0.939   3.656   5.042
   77LIG      N 1141   8.546   5.619   3.813
   77LIG     H1 1142   8.649   5.623   3.824
   77LIG     H2 1143   8.514   5.524   3.841
   77LIG     H3 1144   8.527   5.624   3.711
   77LIG     CA 1145   8.468   5.726   3.881
   77LIG     HA 1146   8.509   5.740   3.980
   77LIG     CB 1147   8.490   5.853   3.793
   77LIG    HB1 1148   8.465   5.833   3.686
   77LIG    HB2 1149   8.597   5.882   3.797
   77LIG     CG 1150   8.410   5.975   3.835
   77LIG    OD1 1151   8.338   6.029   3.747
   77LIG    OD2 1152   8.426   6.022   3.951
   77LIG      C 1153   8.317   5.687   3.899
   77LIG    OT1 1154   8.271   5.584   3.842
   77LIG    OT2 1155   8.244   5.759   3.972
   78LIG      N 1156   4.128   7.932   9.901
   78LIG     H1 1157   4.032   7.954   9.934
   78LIG     H2 1158   4.199   7.976   9.963
   78LIG     H3 1159   4.141   7.977   9.809
   78LIG     CA 1160   4.155   7.785   9.890
   78LIG     HA 1161   4.129   7.740   9.985
   78LIG     CB 1162   4.063   7.732   9.776
   78LIG    HB1 1163   4.099   7.770   9.678
   78LIG    HB2 1164   3.959   7.767   9.791
   78LIG     CG 1165   4.056   7.581   9.768
   78LIG    OD1 1166   4.032   7.529   9.655
   78LIG    OD2 1167   4.061   7.511   9.872
   78LIG      C 1168   4.306   7.757   9.865
   78LIG    OT1 1169   4.383   7.853   9.836
   78LIG    OT2 1170   4.350   7.639   9.878
   79LIG      N 1171   9.277   3.917   1.082
   79LIG     H1 1172   9.249   3.820   1.105
   79LIG     H2 1173   9.377   3.920   1.054
   79LIG     H3 1174   9.268   3.976   1.167
   79LIG     CA 1175   9.196   3.974   0.969
   79LIG     HA 1176   9.157   3.891   0.912
   79LIG     CB 1177   9.082   4.056   1.039
   79LIG    HB1 1178   9.122   4.153   1.074
   79LIG    HB2 1179   9.044   4.001   1.127
   79LIG     CG 1180   8.959   4.083   0.954
   79LIG    OD1 1181   8.953   4.047   0.834
   79LIG    OD2 1182   8.863   4.144   1.010
   79LIG      C 1183   9.291   4.056   0.875
   79LIG    OT1 1184   9.407   4.086   0.917
   79LIG    OT2 1185   9.255   4.086   0.759
   80LIG      N 1186   1.722   5.987   6.281
   80LIG     H1 1187   1.679   6.067   6.230
   80LIG     H2 1188   1.723   5.902   6.221
   80LIG     H3 1189   1.666   5.967   6.367
   80LIG     CA 1190   1.860   6.020   6.328
   80LIG     HA 1191   1.923   5.936   6.302
   80LIG     CB 1192   1.902   6.151   6.255
   80LIG    HB1 1193   1.852   6.238   6.301
   80LIG    HB2 1194   1.874   6.147   6.147
   80LIG     CG 1195   2.052   6.172   6.258
   80LIG    OD1 1196   2.094   6.289   6.241
   80LIG    OD2 1197   2.129   6.073   6.268
   80LIG      C 1198   1.863   6.035   6.483
   80LIG    OT1 1199   1.753   6.039   6.545
   80LIG    OT2 1200   1.973   6.038   6.544
   81LIG      N 1201   0.473   0.563   5.380
   81LIG     H1 1202   0.439   0.546   5.476
   81LIG     H2 1203   0.451   0.660   5.350
   81LIG     H3 1204   0.423   0.497   5.317
   81LIG     CA 1205   0.618   0.533   5.368
   81LIG     HA 1206   0.669   0.602   5.434
   81LIG     CB 1207   0.639   0.386   5.414
   81LIG    HB1 1208   0.613   0.315   5.333
   81LIG    HB2 1209   0.576   0.364   5.503
   81LIG     CG 1210   0.782   0.366   5.459
   81LIG    OD1 1211   0.844   0.263   5.422
   81LIG    OD2 1212   0.831   0.448   5.540
   81LIG      C 1213   0.673   0.558   5.224
   81LIG    OT1 1214   0.598   0.612   5.137
   81LIG    OT2 1215   0.791   0.527   5.197
   82LIG      N 1216   0.204   3.235   8.754
   82LIG     H1 1217   0.129   3.229   8.682
   82LIG     H2 1218   0.178   3.170   8.831
   82LIG     H3 1219   0.210   3.332   8.793
   82LIG     CA 1220   0.335   3.193   8.696
   82LIG     HA 1221   0.333   3.086   8.690
   82LIG     CB 1222   0.353   3.260   8.556
   82LIG    HB1 1223   0.458   3.293   8.541
   82LIG    HB2 1224   0.288   3.349   8.543
   82LIG     CG 1225   0.322   3.161   8.447
   82LIG    OD1 1226   0.354   3.192   8.329
   82LIG    OD2 1227   0.258   3.056   8.475
   82LIG      C 1228   0.459   3.224   8.784
   82LIG    OT1 1229   0.450   3.289   8.892
   82LIG    OT2 1230   0.571   3.182   8.742
   83LIG      N 1231   3.119   0.267   4.806
   83LIG     H1 1232   3.043   0.332   4.781
   83LIG     H2 1233   3.092   0.215   4.892
   83LIG     H3 1234   3.208   0.318   4.827
   83LIG     CA 1235   3.144   0.180   4.688
   83LIG     HA 1236   3.075   0.097   4.691
   83LIG     CB 1237   3.126   0.261   4.555
   83LIG    HB1 1238   3.142   0.193   4.469
   83LIG    HB2 1239   3.203   0.342   4.550
   83LIG     CG 1240   2.991   0.326   4.539
   83LIG    OD1 1241   2.950   0.349   4.421
   83LIG    OD2 1242   2.933   0.370   4.642
   83LIG      C 1243   3.288   0.124   4.686
   83LIG    OT1 1244   3.371   0.164   4.772
   83LIG    OT2 1245   3.319   0.040   4.598
   84LIG      N 1246   1.017   0.452   9.746
   84LIG     H1 1247   1.068   0.543   9.753
   84LIG     H2 1248   1.034   0.393   9.830
   84LIG     H3 1249   1.051   0.402   9.661
   84LIG     CA 1250   0.873   0.486   9.728
   84LIG     HA 1251   0.840   0.540   9.816
   84LIG     CB 1252   0.857   0.575   9.601
   84LIG    HB1 1253   0.749   0.599   9.586
   84LIG    HB2 1254   0.893   0.523   9.510
   84LIG     CG 1255   0.931   0.706   9.615
   84LIG    OD1 1256   0.920   0.791   9.522
   84LIG    OD2 1257   1.005   0.724   9.715
   84LIG      C 1258   0.780   0.362   9.716
   84LIG    OT1 1259   0.830   0.246   9.724
   84LIG    OT2 1260   0.658   0.379   9.694
   85LIG      N 1261   8.682   9.677   5.314
   85LIG     H1 1262   8.726   9.696   5.222
   85LIG     H2 1263   8.605   9.747   5.327
   85LIG     H3 1264   8.750   9.688   5.392
   85LIG     CA 1265   8.623   9.540   5.316
   85LIG     HA 1266   8.619   9.504   5.214
   85LIG     CB 1267   8.721   9.456   5.404
   85LIG    HB1 1268   8.718   9.492   5.508
   85LIG    HB2 1269   8.825   9.464   5.366
   85LIG     CG 1270   8.687   9.308   5.404
   85LIG    OD1 1271   8.731   9.239   5.499
   85LIG    OD2 1272   8.626   9.258   5.306
   85LIG      C 1273   8.479   9.541   5.374
   85LIG    OT1 1274   8.445   9.634   5.452
   85LIG    OT2 1275   8.397   9.453   5.338
   86LIG      N 1276   0.229   1.774   7.576
   86LIG     H1 1277   0.227   1.683   7.525
   86LIG     H2 1278   0.210   1.851   7.509
   86LIG     H3 1279   0.323   1.786   7.619
   86LIG     CA 1280   0.124   1.785   7.681
   86LIG     HA 1281   0.048   1.712   7.659
   86LIG     CB 1282   0.195   1.757   7.817
   86LIG    HB1 1283   0.252   1.846   7.849
   86LIG    HB2 1284   0.265   1.671   7.808
   86LIG     CG 1285   0.098   1.718   7.926
   86LIG    OD1 1286   0.141   1.721   8.044
   86LIG    OD2 1287   9.987   1.669   7.895
   86LIG      C 1288   0.058   1.926   7.675
   86LIG    OT1 1289   0.098   2.010   7.590
   86LIG    OT2 1290   9.965   1.955   7.755
   87LIG      N 1291   3.976   2.340   9.163
   87LIG     H1 1292   3.932   2.432   9.180
   87LIG     H2 1293   3.959   2.306   9.066
   87LIG     H3 1294   3.930   2.269   9.224
   87LIG     CA 1295   4.122   2.341   9.191
   87LIG     HA 1296   4.165   2.419   9.130
   87LIG     CB 1297   4.141   2.366   9.343
   87LIG    HB1 1298   4.161   2.271   9.396
   87LIG    HB2 1299   4.051   2.411   9.390
   87LIG     CG 1300   4.254   2.464   9.369
   87LIG    OD1 1301   4.316   2.454   9.477
   87LIG    OD2 1302   4.269   2.560   9.289
   87LIG      C 1303   4.193   2.209   9.149
   87LIG    OT1 1304   4.124   2.115   9.100
   87LIG    OT2 1305   4.317   2.199   9.166
   88LIG      N 1306   0.659   6.334   4.197
   88LIG     H1 1307   0.559   6.319   4.222
   88LIG     H2 1308   0.713   6.361   4.282
   88LIG     H3 1309   0.666   6.413   4.129
   88LIG     CA 1310   0.718   6.211   4.136
   88LIG     HA 1311   0.675   6.126   4.186
   88LIG     CB 1312   0.683   6.209   3.984
   88LIG    HB1 1313   0.745   6.134   3.931
   88LIG    HB2 1314   0.702   6.308   3.937
   88LIG     CG 1315   0.539   6.169   3.960
   88LIG    OD1 1316   0.493   6.175   3.844
   88LIG    OD2 1317   0.470   6.128   4.058
   88LIG      C 1318   0.871   6.196   4.160
   88LIG    OT1 1319   0.933   6.283   4.228
   88LIG    OT2 1320   0.930   6.096   4.112
   89LIG      N 1321   0.555   8.552   1.755
   89LIG     H1 1322   0.479   8.608   1.800
   89LIG     H2 1323   0.530   8.529   1.657
   89LIG     H3 1324   0.569   8.463   1.807
   89LIG     CA 1325   0.686   8.626   1.752
   89LIG     HA 1326   0.665   8.729   1.728
   89LIG     CB 1327   0.747   8.612   1.894
   89LIG    HB1 1328   0.797   8.513   1.907
   89LIG    HB2 1329   0.669   8.622   1.972
   89LIG     CG 1330   0.848   8.720   1.924
   89LIG    OD1 1331   0.902   8.718   2.038
   89LIG    OD2 1332   0.877   8.807   1.838
   89LIG      C 1333   0.774   8.568   1.636
   89LIG    OT1 1334   0.728   8.473   1.567
   89LIG    OT2 1335   0.887   8.615   1.610
   90LIG      N 1336   3.348   0.611   2.207
   90LIG     H1 1337   3.449   0.633   2.215
   90LIG     H2 1338   3.330   0.581   2.109
   90LIG     H3 1339   3.289   0.695   2.222
   90LIG     CA 1340   3.307   0.498   2.296
   90LIG     HA 1341   3.378   0.419   2.275
   90LIG     CB 1342   3.319   0.544   2.445
   90LIG    HB1 1343   3.226   0.596   2.477
   90LIG    HB2 1344   3.405   0.613   2.458
   90LIG     CG 1345   3.345   0.427   2.537
   90LIG    OD1 1346   3.312   0.437   2.658
   90LIG    OD2 1347   3.412   0.329   2.493
   90LIG      C 1348   3.166   0.442   2.260
   90LIG    OT1 1349   3.100   0.494   2.166
   90LIG    OT2 1350   3.122   0.342   2.322
   91LIG      N 1351   1.712   5.197   7.659
   91LIG     H1 1352   1.691   5.173   7.758
   91LIG     H2 1353   1.765   5.286   7.655
   91LIG     H3 1354   1.625   5.211   7.604
   91LIG     CA 1355   1.801   5.095   7.596
   91LIG     HA 1356   1.836   5.029   7.674
   91LIG     CB 1357   1.716   5.021   7.490
   91LIG    HB1 1358   1.687   5.091   7.408
   91LIG    HB2 1359   1.623   4.981   7.535
   91LIG     CG 1360   1.787   4.903   7.428
   91LIG    OD1 1361   1.747   4.864   7.315
   91LIG    OD2 1362   1.875   4.842   7.493
   91LIG      C 1363   1.925   5.168   7.535
   91LIG    OT1 1364   1.917   5.291   7.510
   91LIG    OT2 1365   2.031   5.104   7.514
   92LIG      N 1366   8.242   6.921   4.057
   92LIG     H1 1367   8.180   6.971   4.124
   92LIG     H2 1368   8.244   6.970   3.965
   92LIG     H3 1369   8.210   6.823   4.045
   92LIG     CA 1370   8.377   6.920   4.120
   92LIG     HA 1371   8.415   7.021   4.118
   92LIG     CB 1372   8.365   6.869   4.267
   92LIG    HB1 1373   8.465   6.881   4.315
   92LIG    HB2 1374   8.339   6.761   4.268
   92LIG     CG 1375   8.264   6.943   4.353
   92LIG    OD1 1376   8.267   6.925   4.478
   92LIG    OD2 1377   8.172   7.008   4.297
   92LIG      C 1378   8.476   6.831   4.040
   92LIG    OT1 1379   8.433   6.764   3.942
   92LIG    OT2 1380   8.597   6.831   4.074
   93LIG      N 1381   9.903   6.371   6.899
   93LIG     H1 1382   9.999   6.410   6.897
   93LIG     H2 1383   9.906   6.267   6.891
   93LIG     H3 1384   9.851   6.410   6.817
   93LIG     CA 1385   9.828   6.406   7.022
   93LIG     HA 1386   9.890   6.373   7.104
   93LIG     CB 1387   9.807   6.560   7.026
   93LIG    HB1 1388   9.721   6.591   6.963
   93LIG    HB2 1389   9.897   6.614   6.990
   93LIG     CG 1390   9.783   6.609   7.167
   93LIG    OD1 1391   9.721   6.717   7.184
   93LIG    OD2 1392   9.839   6.548   7.263
   93LIG      C 1393   9.698   6.320   7.029
   93LIG    OT1 1394   9.704   6.200   6.988
   93LIG    OT2 1395   9.591   6.371   7.070
   94LIG      N 1396   1.753   1.150   8.187
   94LIG     H1 1397   1.853   1.171   8.207
   94LIG     H2 1398   1.721   1.212   8.110
   94LIG     H3 1399   1.696   1.166   8.272
   94LIG     CA 1400   1.733   1.012   8.136
   94LIG     HA 1401   1.830   0.966   8.129
   94LIG     CB 1402   1.642   0.941   8.239
   94LIG    HB1 1403   1.540   0.986   8.241
   94LIG    HB2 1404   1.687   0.946   8.340
   94LIG     CG 1405   1.631   0.794   8.205
   94LIG    OD1 1406   1.516   0.743   8.200
   94LIG    OD2 1407   1.737   0.729   8.186
   94LIG      C 1408   1.672   1.018   7.992
   94LIG    OT1 1409   1.653   1.130   7.938
   94LIG    OT2 1410   1.647   0.911   7.929
   95LIG      N 1411   2.546   8.810   3.991
   95LIG     H1 1412   2.458   8.803   3.937
   95LIG     H2 1413   2.530   8.872   4.073
   95LIG     H3 1414   2.619   8.855   3.931
   95LIG     CA 1415   2.597   8.676   4.033
   95LIG     HA 1416   2.526   8.635   4.103
   95LIG     CB 1417   2.606   8.591   3.903
   95LIG    HB1 1418   2.691   8.625   3.839
   95LIG    HB2 1419   2.512   8.600   3.845
   95LIG     CG 1420   2.622   8.443   3.933
   95LIG    OD1 1421   2.718   8.379   3.881
   95LIG    OD2 1422   2.535   8.388   4.005
   95LIG      C 1423   2.736   8.686   4.104
   95LIG    OT1 1424   2.808   8.788   4.085
   95LIG    OT2 1425   2.773   8.592   4.179
   96LIG      N 1426   5.429   0.098   6.625
   96LIG     H1 1427   5.347   0.117   6.686
   96LIG     H2 1428   5.400   0.116   6.527
   96LIG     H3 1429   5.461   9.999   6.636
   96LIG     CA 1430   5.543   0.186   6.664
   96LIG     HA 1431   5.512   0.287   6.643
   96LIG     CB 1432   5.567   0.161   6.816
   96LIG    HB1 1433   5.668   0.118   6.836
   96LIG    HB2 1434   5.494   0.091   6.863
   96LIG     CG 1435   5.556   0.292   6.890
   96LIG    OD1 1436   5.659   0.363   6.898
   96LIG    OD2 1437   5.443   0.329   6.930
   96LIG      C 1438   5.674   0.160   6.582
   96LIG    OT1 1439   5.686   0.054   6.515
   96LIG    OT2 1440   5.765   0.247   6.583
   97LIG      N 1441   1.483   2.442   5.187
   97LIG     H1 1442   1.577   2.407   5.159
   97LIG     H2 1443   1.410   2.391   5.134
   97LIG     H3 1444   1.470   2.543   5.165
   97LIG     CA 1445   1.449   2.415   5.330
   97LIG     HA 1446   1.531   2.362   5.377
   97LIG     CB 1447   1.426   2.556   5.392
   97LIG    HB1 1448   1.340   2.605   5.343
   97LIG    HB2 1449   1.516   2.619   5.380
   97LIG     CG 1450   1.397   2.551   5.540
   97LIG    OD1 1451   1.333   2.646   5.590
   97LIG    OD2 1452   1.442   2.457   5.610
   97LIG      C 1453   1.322   2.325   5.331
   97LIG    OT1 1454   1.246   2.329   5.231
   97LIG    OT2 1455   1.301   2.246   5.427
   98LIG      N 1456   8.097   9.283   2.461
   98LIG     H1 1457   8.093   9.249   2.363
   98LIG     H2 1458   8.060   9.380   2.459
   98LIG     H3 1459   8.197   9.286   2.491
   98LIG     CA 1460   8.014   9.198   2.551
   98LIG     HA 1461   7.912   9.217   2.523
   98LIG     CB 1462   8.050   9.050   2.524
   98LIG    HB1 1463   8.145   9.021   2.575
   98LIG    HB2 1464   8.061   9.030   2.415
   98LIG     CG 1465   7.938   8.960   2.572
   98LIG    OD1 1466   7.968   8.846   2.616
   98LIG    OD2 1467   7.819   8.999   2.557
   98LIG      C 1468   8.028   9.237   2.702
   98LIG    OT1 1469   8.105   9.332   2.734
   98LIG    OT2 1470   7.961   9.174   2.788
   99LIG      N 1471   4.069   0.486   3.893
   99LIG     H1 1472   3.999   0.451   3.962
   99LIG     H2 1473   4.034   0.469   3.797
   99LIG     H3 1474   4.157   0.432   3.906
   99LIG     CA 1475   4.099   0.631   3.908
   99LIG     HA 1476   4.004   0.682   3.917
   99LIG     CB 1477   4.191   0.651   4.031
   99LIG    HB1 1478   4.299   0.646   4.003
   99LIG    HB2 1479   4.172   0.573   4.108
   99LIG     CG 1480   4.161   0.783   4.096
   99LIG    OD1 1481   4.256   0.855   4.137
   99LIG    OD2 1482   4.041   0.808   4.124
   99LIG      C 1483   4.170   0.689   3.782
   99LIG    OT1 1484   4.202   0.611   3.688
   99LIG    OT2 1485   4.193   0.812   3.777
  100LIG      N 1486   3.615   9.203   9.004
  100LIG     H1 1487   3.586   9.231   9.100
  100LIG     H2 1488   3.649   9.105   9.005
  100LIG     H3 1489   3.693   9.264   8.971
  100LIG     CA 1490   3.495   9.217   8.916
  100LIG     HA 1491   3.424   9.142   8.946
  100LIG     CB 1492   3.435   9.359   8.937
  100LIG    HB1 1493   3.359   9.379   8.859
  100LIG    HB2 1494   3.513   9.438   8.929
  100LIG     CG 1495   3.365   9.369   9.070
  100LIG    OD1 1496   3.284   9.464   9.087
  100LIG    OD2 1497   3.391   9.285   9.161
  100LIG      C 1498   3.521   9.194   8.764
  100LIG    OT1 1499   3.638   9.192   8.719
  100LIG    OT2 1500   3.421   9.174   8.690
  101LIG      N 1501   4.734   8.218   1.534
  101LIG     H1 1502   4.647   8.161   1.525
  101LIG     H2 1503   4.763   8.224   1.634
  101LIG     H3 1504   4.718   8.315   1.498
  101LIG     CA 1505   4.847   8.153   1.462
  101LIG     HA 1506   4.812   8.054   1.434
  101LIG     CB 1507   4.879   8.242   1.339
  101LIG    HB1 1508   4.949   8.324   1.367
  101LIG    HB2 1509   4.787   8.287   1.296
  101LIG     CG 1510   4.939   8.161   1.227
  101LIG    OD1 1511   4.999   8.224   1.137
  101LIG    OD2 1512   4.915   8.037   1.221
  101LIG      C 1513   4.967   8.135   1.561
  101LIG    OT1 1514   4.956   8.180   1.678
  101LIG    OT2 1515   5.070   8.072   1.526
  102LIG      N 1516   1.796   7.852   1.011
  102LIG     H1 1517   1.796   7.893   0.916
  102LIG     H2 1518   1.735   7.768   1.012
  102LIG     H3 1519   1.758   7.920   1.080
  102LIG     CA 1520   1.937   7.816   1.047
  102LIG     HA 1521   1.969   7.740   0.977
  102LIG     CB 1522   2.018   7.947   1.029
  102LIG    HB1 1523   1.995   8.020   1.109
  102LIG    HB2 1524   1.994   7.995   0.931
  102LIG     CG 1525   2.167   7.922   1.025
  102LIG    OD1 1526   2.243   8.005   1.082
  102LIG    OD2 1527   2.211   7.825   0.959
  102LIG      C 1528   1.950   7.756   1.191
  102LIG    OT1 1529   1.853   7.766   1.271
  102LIG    OT2 1530   2.058   7.699   1.224
  103LIG      N 1531   6.949   9.678   9.882
  103LIG     H1 1532   6.864   9.735   9.897
  103LIG     H2 1533   7.017   9.695   9.959
  103LIG     H3 1534   6.996   9.702   9.792
  103LIG     CA 1535   6.922   9.532   9.892
  103LIG     HA 1536   6.824   9.520   9.936
  103LIG     CB 1537   6.934   9.469   9.750
  103LIG    HB1 1538   7.024   9.405   9.741
  103LIG    HB2 1539   6.938   9.546   9.671
  103LIG     CG 1540   6.812   9.386   9.719
  103LIG    OD1 1541   6.828   9.278   9.656
  103LIG    OD2 1542   6.699   9.435   9.743
  103LIG      C 1543   7.024   9.470   9.993
  103LIG    OT1 1544   7.112   9.545   0.043
  103LIG    OT2 1545   7.018   9.347   0.020
  104LIG      N 1546   9.372   3.342   3.657
  104LIG     H1 1547   9.473   3.338   3.634
  104LIG     H2 1548   9.339   3.441   3.659
  104LIG     H3 1549   9.356   3.299   3.751
  104LIG     CA 1550   9.295   3.263   3.557
  104LIG     HA 1551   9.341   3.281   3.461
  104LIG     CB 1552   9.306   3.115   3.604
  104LIG    HB1 1553   9.226   3.090   3.676
  104LIG    HB2 1554   9.404   3.095   3.653
  104LIG     CG 1555   9.301   3.018   3.488
  104LIG    OD1 1556   9.276   2.898   3.516
  104LIG    OD2 1557   9.341   3.057   3.375
  104LIG      C 1558   9.146   3.310   3.544
  104LIG    OT1 1559   9.104   3.402   3.619
  104LIG    OT2 1560   9.071   3.254   3.461
  105LIG      N 1561   6.405   0.590   5.377
  105LIG     H1 1562   6.389   0.690   5.401
  105LIG     H2 1563   6.389   0.572   5.276
  105LIG     H3 1564   6.343   0.527   5.434
  105LIG     CA 1565   6.548   0.563   5.413
  105LIG     HA 1566   6.609   0.614   5.341
  105LIG     CB 1567   6.578   0.621   5.555
  105LIG    HB1 1568   6.681   0.593   5.585
  105LIG    HB2 1569   6.508   0.581   5.631
  105LIG     CG 1570   6.571   0.773   5.556
  105LIG    OD1 1571   6.629   0.836   5.648
  105LIG    OD2 1572   6.499   0.829   5.470
  105LIG      C 1573   6.586   0.413   5.404
  105LIG    OT1 1574   6.499   0.326   5.379
  105LIG    OT2 1575   6.706   0.380   5.422
  106LIG      N 1576   5.412   9.915   4.612
  106LIG     H1 1577   5.320   9.869   4.600
  106LIG     H2 1578   5.482   9.846   4.647
  106LIG     H3 1579   5.402   9.989   4.684
  106LIG     CA 1580   5.462   9.969   4.482
  106LIG     HA 1581   5.518   9.888   4.438
  106LIG     CB 1582   5.340   0.006   4.392
  106LIG    HB1 1583   5.303   0.108   4.413
  106LIG    HB2 1584   5.256   9.934   4.406
  106LIG     CG 1585   5.377   9.995   4.244
  106LIG    OD1 1586   5.324   0.076   4.163
  106LIG    OD2 1587   5.448   9.898   4.209
  106LIG      C 1588   5.560   0.090   4.498
  106LIG    OT1 1589   5.579   0.140   4.612
  106LIG    OT2 1590   5.619   0.134   4.397
  107LIG      N 1591   8.306   3.018   2.051
  107LIG     H1 1592   8.343   3.113   2.032
  107LIG     H2 1593   8.270   3.012   2.148
  107LIG     H3 1594   8.381   2.946   2.038
  107LIG     CA 1595   8.195   2.991   1.955
  107LIG     HA 1596   8.140   3.083   1.944
  107LIG     CB 1597   8.264   2.947   1.823
  107LIG    HB1 1598   8.299   2.842   1.831
  107LIG    HB2 1599   8.352   3.011   1.800
  107LIG     CG 1600   8.174   2.960   1.703
  107LIG    OD1 1601   8.201   2.894   1.599
  107LIG    OD2 1602   8.086   3.050   1.703
  107LIG      C 1603   8.095   2.884   2.009
  107LIG    OT1 1604   8.125   2.819   2.113
  107LIG    OT2 1605   7.986   2.865   1.949
  108LIG      N 1606   6.059   1.165   9.938
  108LIG     H1 1607   6.069   1.066   9.968
  108LIG     H2 1608   6.096   1.230   0.010
  108LIG     H3 1609   5.959   1.187   9.921
  108LIG     CA 1610   6.140   1.192   9.816
  108LIG     HA 1611   6.211   1.111   9.807
  108LIG     CB 1612   6.044   1.197   9.693
  108LIG    HB1 1613   6.003   1.299   9.681
  108LIG    HB2 1614   5.959   1.127   9.706
  108LIG     CG 1615   6.111   1.155   9.564
  108LIG    OD1 1616   6.058   1.191   9.455
  108LIG    OD2 1617   6.209   1.075   9.568
  108LIG      C 1618   6.224   1.322   9.839
  108LIG    OT1 1619   6.228   1.373   9.955
  108LIG    OT2 1620   6.289   1.372   9.744
  109LIG      N 1621   4.068   6.632   0.230
  109LIG     H1 1622   3.964   6.622   0.234
  109LIG     H2 1623   4.096   6.685   0.146
  109LIG     H3 1624   4.113   6.539   0.222
  109LIG     CA 1625   4.118   6.698   0.354
  109LIG     HA 1626   4.061   6.789   0.370
  109LIG     CB 1627   4.099   6.597   0.471
  109LIG    HB1 1628   4.186   6.603   0.541
  109LIG    HB2 1629   4.091   6.492   0.438
  109LIG     CG 1630   3.977   6.636   0.551
  109LIG    OD1 1631   3.982   6.743   0.616
  109LIG    OD2 1632   3.876   6.561   0.548
  109LIG      C 1633   4.266   6.744   0.342
  109LIG    OT1 1634   4.332   6.714   0.239
  109LIG    OT2 1635   4.318   6.810   0.435
  110LIG      N 1636   9.961   0.203   1.995
  110LIG     H1 1637   0.032   0.201   1.919
  110LIG     H2 1638   9.993   0.262   2.075
  110LIG     H3 1639   9.946   0.107   2.032
  110LIG     CA 1640   9.831   0.254   1.943
  110LIG     HA 1641   9.850   0.350   1.898
  110LIG     CB 1642   9.780   0.149   1.838
  110LIG    HB1 1643   9.719   0.071   1.888
  110LIG    HB2 1644   9.864   0.100   1.785
  110LIG     CG 1645   9.697   0.214   1.730
  110LIG    OD1 1646   9.634   0.138   1.652
  110LIG    OD2 1647   9.701   0.339   1.714
  110LIG      C 1648   9.730   0.275   2.059
  110LIG    OT1 1649   9.767   0.254   2.178
  110LIG    OT2 1650   9.612   0.309   2.033
  111LIG      N 1651   2.343   9.473   3.315
  111LIG     H1 1652   2.395   9.515   3.235
  111LIG     H2 1653   2.353   9.370   3.315
  111LIG     H3 1654   2.242   9.496   3.306
  111LIG     CA 1655   2.388   9.527   3.448
  111LIG     HA 1656   2.493   9.506   3.457
  111LIG     CB 1657   2.359   9.679   3.446
  111LIG    HB1 1658   2.251   9.700   3.462
  111LIG    HB2 1659   2.389   9.723   3.348
  111LIG     CG 1660   2.441   9.752   3.549
  111LIG    OD1 1661   2.391   9.853   3.606
  111LIG    OD2 1662   2.562   9.719   3.562
  111LIG      C 1663   2.314   9.453   3.565
  111LIG    OT1 1664   2.222   9.371   3.538
  111LIG    OT2 1665   2.352   9.471   3.683
  112LIG      N 1666   2.252   7.899   7.899
  112LIG     H1 1667   2.328   7.951   7.947
  112LIG     H2 1668   2.168   7.960   7.898
  112LIG     H3 1669   2.226   7.818   7.959
  112LIG     CA 1670   2.290   7.846   7.764
  112LIG     HA 1671   2.252   7.913   7.688
  112LIG     CB 1672   2.446   7.837   7.759
  112LIG    HB1 1673   2.483   7.774   7.842
  112LIG    HB2 1674   2.489   7.939   7.771
  112LIG     CG 1675   2.499   7.781   7.629
  112LIG    OD1 1676   2.574   7.680   7.635
  112LIG    OD2 1677   2.472   7.837   7.519
  112LIG      C 1678   2.226   7.706   7.741
  112LIG    OT1 1679   2.181   7.641   7.840
  112LIG    OT2 1680   2.220   7.658   7.625
  113LIG      N 1681   8.465   0.832   1.575
  113LIG     H1 1682   8.416   0.906   1.521
  113LIG     H2 1683   8.432   0.834   1.673
  113LIG     H3 1684   8.568   0.848   1.575
  113LIG     CA 1685   8.431   0.698   1.519
  113LIG     HA 1686   8.323   0.691   1.526
  113LIG     CB 1687   8.481   0.690   1.372
  113LIG    HB1 1688   8.579   0.637   1.366
  113LIG    HB2 1689   8.495   0.790   1.328
  113LIG     CG 1690   8.381   0.619   1.283
  113LIG    OD1 1691   8.424   0.563   1.179
  113LIG    OD2 1692   8.259   0.638   1.306
  113LIG      C 1693   8.488   0.583   1.606
  113LIG    OT1 1694   8.571   0.609   1.697
  113LIG    OT2 1695   8.447   0.465   1.589
  114LIG      N 1696   0.254   8.740   3.887
  114LIG     H1 1697   0.250   8.800   3.972
  114LIG     H2 1698   0.290   8.795   3.806
  114LIG     H3 1699   0.156   8.715   3.863
  114LIG     CA 1700   0.334   8.615   3.912
  114LIG     HA 1701   0.438   8.642   3.905
  114LIG     CB 1702   0.304   8.569   4.057
  114LIG    HB1 1703   0.202   8.525   4.065
  114LIG    HB2 1704   0.310   8.658   4.124
  114LIG     CG 1705   0.404   8.471   4.116
  114LIG    OD1 1706   0.378   8.428   4.231
  114LIG    OD2 1707   0.509   8.438   4.054
  114LIG      C 1708   0.310   8.503   3.806
  114LIG    OT1 1709   0.255   8.535   3.697
  114LIG    OT2 1710   0.346   8.385   3.827
  115LIG      N 1711   8.586   3.580   3.256
  115LIG     H1 1712   8.682   3.603   3.224
  115LIG     H2 1713   8.537   3.668   3.282
  115LIG     H3 1714   8.592   3.518   3.339
  115LIG     CA 1715   8.512   3.504   3.149
  115LIG     HA 1716   8.499   3.572   3.067
  115LIG     CB 1717   8.604   3.385   3.108
  115LIG    HB1 1718   8.591   3.300   3.179
  115LIG    HB2 1719   8.711   3.414   3.108
  115LIG     CG 1720   8.575   3.335   2.968
  115LIG    OD1 1721   8.625   3.224   2.936
  115LIG    OD2 1722   8.512   3.408   2.887
  115LIG      C 1723   8.370   3.459   3.195
  115LIG    OT1 1724   8.320   3.506   3.301
  115LIG    OT2 1725   8.305   3.376   3.126
  116LIG      N 1726   2.241   0.607   1.306
  116LIG     H1 1727   2.266   0.600   1.205
  116LIG     H2 1728   2.272   0.523   1.359
  116LIG     H3 1729   2.138   0.615   1.316
  116LIG     CA 1730   2.295   0.730   1.372
  116LIG     HA 1731   2.375   0.700   1.438
  116LIG     CB 1732   2.342   0.829   1.262
  116LIG    HB1 1733   2.302   0.931   1.282
  116LIG    HB2 1734   2.310   0.800   1.160
  116LIG     CG 1735   2.493   0.842   1.265
  116LIG    OD1 1736   2.550   0.876   1.371
  116LIG    OD2 1737   2.557   0.825   1.158
  116LIG      C 1738   2.183   0.792   1.461
  116LIG    OT1 1739   2.062   0.761   1.438
  116LIG    OT2 1740   2.215   0.871   1.553
  117LIG      N 1741   2.152   3.027   4.643
  117LIG     H1 1742   2.083   2.994   4.712
  117LIG     H2 1743   2.101   3.059   4.558
  117LIG     H3 1744   2.212   2.946   4.617
  117LIG     CA 1745   2.237   3.137   4.698
  117LIG     HA 1746   2.173   3.222   4.719
  117LIG     CB 1747   2.303   3.081   4.827
  117LIG    HB1 1748   2.371   2.997   4.803
  117LIG    HB2 1749   2.225   3.045   4.897
  117LIG     CG 1750   2.381   3.188   4.900
  117LIG    OD1 1751   2.501   3.167   4.931
  117LIG    OD2 1752   2.321   3.293   4.933
  117LIG      C 1753   2.349   3.182   4.599
  117LIG    OT1 1754   2.399   3.098   4.519
  117LIG    OT2 1755   2.392   3.300   4.605
  118LIG      N 1756   9.312   6.740   6.731
  118LIG     H1 1757   9.283   6.753   6.632
  118LIG     H2 1758   9.339   6.640   6.741
  118LIG     H3 1759   9.230   6.759   6.792
  118LIG     CA 1760   9.417   6.836   6.774
  118LIG     HA 1761   9.503   6.778   6.804
  118LIG     CB 1762   9.448   6.934   6.656
  118LIG    HB1 1763   9.432   7.040   6.686
  118LIG    HB2 1764   9.384   6.914   6.567
  118LIG     CG 1765   9.592   6.918   6.611
  118LIG    OD1 1766   9.664   7.021   6.602
  118LIG    OD2 1767   9.635   6.803   6.583
  118LIG      C 1768   9.367   6.914   6.900
  118LIG    OT1 1769   9.248   6.897   6.939
  118LIG    OT2 1770   9.444   6.993   6.959
  119LIG      N 1771   0.053   5.964   1.840
  119LIG     H1 1772   0.085   6.039   1.905
  119LIG     H2 1773   0.027   5.878   1.893
  119LIG     H3 1774   0.131   5.936   1.776
  119LIG     CA 1775   9.933   6.004   1.763
  119LIG     HA 1776   9.848   5.990   1.829
  119LIG     CB 1777   9.947   6.151   1.716
  119LIG    HB1 1778   9.894   6.168   1.620
  119LIG    HB2 1779   0.052   6.184   1.703
  119LIG     CG 1780   9.879   6.235   1.820
  119LIG    OD1 1781   9.757   6.261   1.807
  119LIG    OD2 1782   9.942   6.258   1.927
  119LIG      C 1783   9.905   5.911   1.642
  119LIG    OT1 1784   9.993   5.830   1.603
  119LIG    OT2 1785   9.792   5.920   1.588
  120LIG      N 1786   4.513   1.968   0.412
  120LIG     H1 1787   4.549   1.967   0.314
  120LIG     H2 1788   4.578   1.914   0.473
  120LIG     H3 1789   4.422   1.919   0.415
  120LIG     CA 1790   4.502   2.108   0.466
  120LIG     HA 1791   4.581   2.167   0.421
  120LIG     CB 1792   4.362   2.162   0.426
  120LIG    HB1 1793   4.282   2.109   0.482
  120LIG    HB2 1794   4.345   2.147   0.318
  120LIG     CG 1795   4.351   2.311   0.450
  120LIG    OD1 1796   4.245   2.355   0.503
  120LIG    OD2 1797   4.439   2.388   0.404
  120LIG      C 1798   4.525   2.112   0.620
  120LIG    OT1 1799   4.543   2.004   0.682
  120LIG    OT2 1800   4.525   2.222   0.681
  121LIG      N 1801   2.101   1.420   8.440
  121LIG     H1 1802   2.070   1.451   8.535
  121LIG     H2 1803   2.190   1.466   8.413
  121LIG     H3 1804   2.027   1.442   8.371
  121LIG     CA 1805   2.117   1.271   8.432
  121LIG     HA 1806   2.221   1.251   8.411
  121LIG     CB 1807   2.069   1.208   8.566
  121LIG    HB1 1808   1.977   1.148   8.551
  121LIG    HB2 1809   2.046   1.286   8.643
  121LIG     CG 1810   2.173   1.119   8.631
  121LIG    OD1 1811   2.139   1.056   8.735
  121LIG    OD2 1812   2.290   1.120   8.587
  121LIG      C 1813   2.038   1.218   8.309
  121LIG    OT1 1814   1.972   1.300   8.238
  121LIG    OT2 1815   2.040   1.097   8.280
  122LIG      N 1816   8.465   1.366   0.600
  122LIG     H1 1817   8.385   1.301   0.584
  122LIG     H2 1818   8.551   1.332   0.553
  122LIG     H3 1819   8.486   1.370   0.702
  122LIG     CA 1820   8.439   1.503   0.551
  122LIG     HA 1821   8.370   1.493   0.469
  122LIG     CB 1822   8.381   1.586   0.669
  122LIG    HB1 1823   8.461   1.625   0.734
  122LIG    HB2 1824   8.311   1.525   0.731
  122LIG     CG 1825   8.298   1.701   0.616
  122LIG    OD1 1826   8.274   1.797   0.692
  122LIG    OD2 1827   8.244   1.687   0.503
  122LIG      C 1828   8.570   1.565   0.492
  122LIG    OT1 1829   8.676   1.497   0.494
  122LIG    OT2 1830   8.567   1.679   0.439
  123LIG      N 1831   9.859   6.666   1.195
  123LIG     H1 1832   9.929   6.673   1.119
  123LIG     H2 1833   9.871   6.748   1.257
  123LIG     H3 1834   9.875   6.580   1.251
  123LIG     CA 1835   9.720   6.662   1.140
  123LIG     HA 1836   9.707   6.752   1.082
  123LIG     CB 1837   9.713   6.535   1.050
  123LIG    HB1 1838   9.695   6.445   1.112
  123LIG    HB2 1839   9.808   6.520   0.995
  123LIG     CG 1840   9.606   6.541   0.942
  123LIG    OD1 1841   9.592   6.438   0.871
  123LIG    OD2 1842   9.541   6.646   0.923
  123LIG      C 1843   9.613   6.664   1.256
  123LIG    OT1 1844   9.651   6.649   1.375
  123LIG    OT2 1845   9.493   6.686   1.229
  124LIG      N 1846   4.866   0.103   1.026
  124LIG     H1 1847   4.954   0.067   0.984
  124LIG     H2 1848   4.816   0.024   1.071
  124LIG     H3 1849   4.804   0.136   0.949
  124LIG     CA 1850   4.887   0.213   1.125
  124LIG     HA 1851   4.924   0.164   1.214
  124LIG     CB 1852   4.993   0.312   1.069
  124LIG    HB1 1853   4.944   0.387   1.002
  124LIG    HB2 1854   5.072   0.259   1.011
  124LIG     CG 1855   5.064   0.386   1.181
  124LIG    OD1 1856   5.141   0.481   1.150
  124LIG    OD2 1857   5.053   0.345   1.299
  124LIG      C 1858   4.754   0.284   1.163
  124LIG    OT1 1859   4.646   0.244   1.111
  124LIG    OT2 1860   4.755   0.378   1.247
  125LIG      N 1861   4.575   1.293   3.934
  125LIG     H1 1862   4.569   1.193   3.963
  125LIG     H2 1863   4.581   1.349   4.021
  125LIG     H3 1864   4.488   1.318   3.884
  125LIG     CA 1865   4.696   1.319   3.851
  125LIG     HA 1866   4.779   1.303   3.918
  125LIG     CB 1867   4.701   1.219   3.731
  125LIG    HB1 1868   4.669   1.267   3.636
  125LIG    HB2 1869   4.638   1.130   3.749
  125LIG     CG 1870   4.843   1.168   3.715
  125LIG    OD1 1871   4.889   1.143   3.601
  125LIG    OD2 1872   4.907   1.140   3.821
  125LIG      C 1873   4.709   1.467   3.805
  125LIG    OT1 1874   4.629   1.553   3.852
  125LIG    OT2 1875   4.799   1.501   3.723
  126LIG      N 1876   1.478   8.943   5.029
  126LIG     H1 1877   1.510   9.001   4.949
  126LIG     H2 1878   1.387   8.980   5.063
  126LIG     H3 1879   1.545   8.958   5.106
  126LIG     CA 1880   1.467   8.796   5.001
  126LIG     HA 1881   1.395   8.784   4.921
  126LIG     CB 1882   1.610   8.753   4.952
  126LIG    HB1 1883   1.681   8.762   5.037
  126LIG    HB2 1884   1.644   8.821   4.871
  126LIG     CG 1885   1.622   8.612   4.899
  126LIG    OD1 1886   1.570   8.518   4.963
  126LIG    OD2 1887   1.695   8.590   4.799
  126LIG      C 1888   1.406   8.725   5.128
  126LIG    OT1 1889   1.401   8.787   5.238
  126LIG    OT2 1890   1.355   8.610   5.117
  127LIG      N 1891   5.257   1.181   1.855
  127LIG     H1 1892   5.195   1.116   1.803
  127LIG     H2 1893   5.308   1.126   1.927
  127LIG     H3 1894   5.199   1.252   1.905
  127LIG     CA 1895   5.351   1.250   1.763
  127LIG     HA 1896   5.425   1.178   1.732
  127LIG     CB 1897   5.267   1.298   1.642
  127LIG    HB1 1898   5.206   1.387   1.666
  127LIG    HB2 1899   5.200   1.217   1.605
  127LIG     CG 1900   5.360   1.328   1.526
  127LIG    OD1 1901   5.355   1.443   1.473
  127LIG    OD2 1902   5.436   1.237   1.486
  127LIG      C 1903   5.429   1.366   1.834
  127LIG    OT1 1904   5.413   1.385   1.957
  127LIG    OT2 1905   5.506   1.440   1.767
  128LIG      N 1906   8.285   8.532   2.587
  128LIG     H1 1907   8.385   8.542   2.560
  128LIG     H2 1908   8.227   8.604   2.539
  128LIG     H3 1909   8.276   8.550   2.689
  128LIG     CA 1910   8.225   8.397   2.558
  128LIG     HA 1911   8.214   8.389   2.451
  128LIG     CB 1912   8.330   8.292   2.604
  128LIG    HB1 1913   8.362   8.310   2.709
  128LIG    HB2 1914   8.421   8.299   2.541
  128LIG     CG 1915   8.277   8.151   2.591
  128LIG    OD1 1916   8.249   8.087   2.696
  128LIG    OD2 1917   8.258   8.105   2.475
  128LIG      C 1918   8.081   8.384   2.618
  128LIG    OT1 1919   8.032   8.479   2.684
  128LIG    OT2 1920   8.012   8.281   2.596
  129LIG      N 1921   0.927   8.807   7.977
  129LIG     H1 1922   0.847   8.873   7.967
  129LIG     H2 1923   1.007   8.838   7.918
  129LIG     H3 1924   0.897   8.713   7.944
  129LIG     CA 1925   0.969   8.798   8.120
  129LIG     HA 1926   0.994   8.898   8.151
  129LIG     CB 1927   0.847   8.742   8.198
  129LIG    HB1 1928   0.849   8.631   8.201
  129LIG    HB2 1929   0.751   8.772   8.153
  129LIG     CG 1930   0.845   8.799   8.338
  129LIG    OD1 1931   0.862   8.724   8.437
  129LIG    OD2 1932   0.824   8.923   8.348
  129LIG      C 1933   1.098   8.711   8.141
  129LIG    OT1 1934   1.152   8.656   8.041
  129LIG    OT2 1935   1.146   8.697   8.256
  130LIG      N 1936   6.716   7.402   0.317
  130LIG     H1 1937   6.687   7.497   0.285
  130LIG     H2 1938   6.771   7.411   0.405
  130LIG     H3 1939   6.776   7.355   0.246
  130LIG     CA 1940   6.596   7.317   0.340
  130LIG     HA 1941   6.523   7.380   0.390
  130LIG     CB 1942   6.543   7.269   0.202
  130LIG    HB1 1943   6.596   7.177   0.168
  130LIG    HB2 1944   6.558   7.348   0.124
  130LIG     CG 1945   6.395   7.244   0.206
  130LIG    OD1 1946   6.350   7.135   0.162
  130LIG    OD2 1947   6.320   7.337   0.247
  130LIG      C 1948   6.627   7.198   0.436
  130LIG    OT1 1949   6.740   7.191   0.490
  130LIG    OT2 1950   6.538   7.112   0.460
  131LIG      N 1951   9.106   5.571   3.675
  131LIG     H1 1952   9.155   5.585   3.584
  131LIG     H2 1953   9.076   5.663   3.714
  131LIG     H3 1954   9.175   5.529   3.740
  131LIG     CA 1955   8.988   5.481   3.659
  131LIG     HA 1956   8.955   5.495   3.557
  131LIG     CB 1957   9.039   5.335   3.683
  131LIG    HB1 1958   9.016   5.303   3.787
  131LIG    HB2 1959   9.149   5.325   3.667
  131LIG     CG 1960   8.977   5.236   3.587
  131LIG    OD1 1961   8.995   5.113   3.609
  131LIG    OD2 1962   8.918   5.278   3.484
  131LIG      C 1963   8.866   5.519   3.750
  131LIG    OT1 1964   8.872   5.620   3.826
  131LIG    OT2 1965   8.761   5.451   3.742
  132LIG      N 1966   8.950   2.139   5.790
  132LIG     H1 1967   8.931   2.038   5.777
  132LIG     H2 1968   8.921   2.168   5.886
  132LIG     H3 1969   8.903   2.194   5.716
  132LIG     CA 1970   9.095   2.171   5.776
  132LIG     HA 1971   9.126   2.216   5.869
  132LIG     CB 1972   9.171   2.040   5.741
  132LIG    HB1 1973   9.192   2.031   5.633
  132LIG    HB2 1974   9.114   1.949   5.772
  132LIG     CG 1975   9.299   2.036   5.819
  132LIG    OD1 1976   9.404   1.997   5.761
  132LIG    OD2 1977   9.291   2.055   5.944
  132LIG      C 1978   9.113   2.276   5.664
  132LIG    OT1 1979   9.016   2.303   5.589
  132LIG    OT2 1980   9.225   2.331   5.652
  133LIG      N 1981   6.384   2.296   9.878
  133LIG     H1 1982   6.465   2.246   9.836
  133LIG     H2 1983   6.388   2.290   9.982
  133LIG     H3 1984   6.294   2.255   9.846
  133LIG     CA 1985   6.382   2.438   9.832
  133LIG     HA 1986   6.430   2.498   9.908
  133LIG     CB 1987   6.463   2.439   9.699
  133LIG    HB1 1988   6.399   2.405   9.615
  133LIG    HB2 1989   6.551   2.370   9.706
  133LIG     CG 1990   6.520   2.575   9.664
  133LIG    OD1 1991   6.442   2.669   9.638
  133LIG    OD2 1992   6.645   2.585   9.653
  133LIG      C 1993   6.233   2.484   9.819
  133LIG    OT1 1994   6.141   2.398   9.826
  133LIG    OT2 1995   6.206   2.605   9.800
  134LIG      N 1996   0.405   8.769   4.977
  134LIG     H1 1997   0.451   8.862   4.978
  134LIG     H2 1998   0.402   8.740   4.877
  134LIG     H3 1999   0.307   8.779   5.009
  134LIG     CA 2000   0.478   8.664   5.054
  134LIG     HA 2001   0.564   8.711   5.099
  134LIG     CB 2002   0.379   8.610   5.162
  134LIG    HB1 2003   0.302   8.545   5.116
  134LIG    HB2 2004   0.329   8.695   5.213
  134LIG     CG 2005   0.451   8.534   5.271
  134LIG    OD1 2006   0.392   8.436   5.324
  134LIG    OD2 2007   0.560   8.579   5.314
  134LIG      C 2008   0.528   8.550   4.960
  134LIG    OT1 2009   0.503   8.556   4.836
  134LIG    OT2 2010   0.591   8.452   5.007
  135LIG      N 2011   3.390   8.057   7.441
  135LIG     H1 2012   3.463   8.075   7.513
  135LIG     H2 2013   3.425   8.087   7.348
  135LIG     H3 2014   3.308   8.118   7.459
  135LIG     CA 2015   3.348   7.914   7.440
  135LIG     HA 2016   3.439   7.859   7.417
  135LIG     CB 2017   3.298   7.875   7.582
  135LIG    HB1 2018   3.187   7.879   7.588
  135LIG    HB2 2019   3.337   7.945   7.659
  135LIG     CG 2020   3.343   7.736   7.625
  135LIG    OD1 2021   3.321   7.702   7.744
  135LIG    OD2 2022   3.404   7.661   7.544
  135LIG      C 2023   3.247   7.879   7.326
  135LIG    OT1 2024   3.216   7.966   7.241
  135LIG    OT2 2025   3.198   7.763   7.319
  136LIG      N 2026   4.851   8.394   9.517
  136LIG     H1 2027   4.953   8.408   9.500
  136LIG     H2 2028   4.794   8.429   9.438
  136LIG     H3 2029   4.825   8.447   9.603
  136LIG     CA 2030   4.818   8.250   9.539
  136LIG     HA 2031   4.867   8.194   9.461
  136LIG     CB 2032   4.875   8.215   9.680
  136LIG    HB1 2033   4.806   8.254   9.758
  136LIG    HB2 2034   4.975   8.263   9.695
  136LIG     CG 2035   4.897   8.067   9.701
  136LIG    OD1 2036   4.927   8.030   9.818
  136LIG    OD2 2037   4.896   7.988   9.605
  136LIG      C 2038   4.665   8.228   9.526
  136LIG    OT1 2039   4.590   8.328   9.509
  136LIG    OT2 2040   4.617   8.111   9.529
  137LIG      N 2041   8.461   1.506   7.123
  137LIG     H1 2042   8.490   1.433   7.055
  137LIG     H2 2043   8.358   1.500   7.137
  137LIG     H3 2044   8.484   1.601   7.087
  137LIG     CA 2045   8.526   1.489   7.256
  137LIG     HA 2046   8.501   1.390   7.291
  137LIG     CB 2047   8.680   1.508   7.237
  137LIG    HB1 2048   8.712   1.610   7.266
  137LIG    HB2 2049   8.711   1.492   7.131
  137LIG     CG 2050   8.758   1.408   7.319
  137LIG    OD1 2051   8.792   1.435   7.437
  137LIG    OD2 2052   8.784   1.296   7.266
  137LIG      C 2053   8.467   1.593   7.356
  137LIG    OT1 2054   8.406   1.694   7.313
  137LIG    OT2 2055   8.479   1.571   7.479
  138LIG      N 2056   1.677   3.618   1.353
  138LIG     H1 2057   1.738   3.561   1.290
  138LIG     H2 2058   1.592   3.561   1.371
  138LIG     H3 2059   1.653   3.707   1.306
  138LIG     CA 2060   1.746   3.650   1.482
  138LIG     HA 2061   1.674   3.629   1.560
  138LIG     CB 2062   1.872   3.561   1.493
  138LIG    HB1 2063   1.960   3.608   1.445
  138LIG    HB2 2064   1.854   3.462   1.446
  138LIG     CG 2065   1.900   3.532   1.638
  138LIG    OD1 2066   2.016   3.551   1.684
  138LIG    OD2 2067   1.807   3.481   1.707
  138LIG      C 2068   1.782   3.802   1.492
  138LIG    OT1 2069   1.754   3.878   1.396
  138LIG    OT2 2070   1.838   3.847   1.596
  139LIG      N 2071   2.258   1.114   9.983
  139LIG     H1 2072   2.356   1.142   9.960
  139LIG     H2 2073   2.267   1.043   0.059
  139LIG     H3 2074   2.212   1.071   9.900
  139LIG     CA 2075   2.175   1.223   0.041
  139LIG     HA 2076   2.215   1.245   0.139
  139LIG     CB 2077   2.177   1.350   9.950
  139LIG    HB1 2078   2.086   1.410   9.970
  139LIG    HB2 2079   2.176   1.323   9.842
  139LIG     CG 2080   2.295   1.439   9.980
  139LIG    OD1 2081   2.294   1.555   9.932
  139LIG    OD2 2082   2.393   1.394   0.044
  139LIG      C 2083   2.028   1.177   0.064
  139LIG    OT1 2084   1.987   1.067   0.018
  139LIG    OT2 2085   1.954   1.252   0.134
  140LIG      N 2086   1.725   6.022   1.704
  140LIG     H1 2087   1.711   6.056   1.606
  140LIG     H2 2088   1.668   5.936   1.717
  140LIG     H3 2089   1.691   6.094   1.771
  140LIG     CA 2090   1.868   5.985   1.728
  140LIG     HA 2091   1.925   6.042   1.656
  140LIG     CB 2092   1.907   6.027   1.873
  140LIG    HB1 2093   1.910   5.939   1.941
  140LIG    HB2 2094   1.835   6.101   1.916
  140LIG     CG 2095   2.042   6.097   1.878
  140LIG    OD1 2096   2.075   6.156   1.985
  140LIG    OD2 2097   2.119   6.092   1.779
  140LIG      C 2098   1.892   5.834   1.694
  140LIG    OT1 2099   1.798   5.767   1.642
  140LIG    OT2 2100   2.004   5.782   1.715
  141LIG      N 2101   1.083   2.188   1.350
  141LIG     H1 2102   1.097   2.197   1.453
  141LIG     H2 2103   1.028   2.103   1.328
  141LIG     H3 2104   1.173   2.180   1.300
  141LIG     CA 2105   1.009   2.307   1.299
  141LIG     HA 2106   0.913   2.307   1.348
  141LIG     CB 2107   1.092   2.433   1.336
  141LIG    HB1 2108   1.168   2.457   1.258
  141LIG    HB2 2109   1.144   2.421   1.433
  141LIG     CG 2110   0.999   2.551   1.355
  141LIG    OD1 2111   1.032   2.663   1.310
  141LIG    OD2 2112   0.896   2.533   1.426
  141LIG      C 2113   0.982   2.301   1.146
  141LIG    OT1 2114   1.023   2.202   1.079
  141LIG    OT2 2115   0.921   2.397   1.092
  142LIG      N 2116   0.119   9.093   6.959
  142LIG     H1 2117   0.199   9.034   6.929
  142LIG     H2 2118   0.132   9.190   6.925
  142LIG     H3 2119   0.115   9.091   7.063
  142LIG     CA 2120   9.992   9.040   6.904
  142LIG     HA 2121   0.009   9.032   6.798
  142LIG     CB 2122   9.966   8.900   6.968
  142LIG    HB1 2123   9.893   8.908   7.052
  142LIG    HB2 2124   0.059   8.855   7.007
  142LIG     CG 2125   9.912   8.802   6.866
  142LIG    OD1 2126   9.899   8.683   6.903
  142LIG    OD2 2127   9.884   8.841   6.750
  142LIG      C 2128   9.876   9.142   6.921
  142LIG    OT1 2129   9.905   9.264   6.938
  142LIG    OT2 2130   9.756   9.103   6.919
  143LIG      N 2131   5.630   5.148   9.523
  143LIG     H1 2132   5.719   5.119   9.477
  143LIG     H2 2133   5.553   5.154   9.453
  143LIG     H3 2134   5.641   5.243   9.565
  143LIG     CA 2135   5.587   5.049   9.627
  143LIG     HA 2136   5.542   4.968   9.572
  143LIG     CB 2137   5.711   5.000   9.708
  143LIG    HB1 2138   5.729   5.064   9.797
  143LIG    HB2 2139   5.803   5.001   9.645
  143LIG     CG 2140   5.696   4.856   9.751
  143LIG    OD1 2141   5.748   4.817   9.858
  143LIG    OD2 2142   5.643   4.775   9.669
  143LIG      C 2143   5.477   5.108   9.719
  143LIG    OT1 2144   5.442   5.229   9.704
  143LIG    OT2 2145   5.425   5.034   9.807
  144LIG      N 2146   9.400   8.655   2.446
  144LIG     H1 2147   9.335   8.574   2.446
  144LIG     H2 2148   9.381   8.718   2.365
  144LIG     H3 2149   9.498   8.622   2.436
  144LIG     CA 2150   9.387   8.732   2.573
  144LIG     HA 2151   9.287   8.772   2.575
  144LIG     CB 2152   9.412   8.634   2.691
  144LIG    HB1 2153   9.519   8.634   2.722
  144LIG    HB2 2154   9.385   8.529   2.666
  144LIG     CG 2155   9.324   8.672   2.807
  144LIG    OD1 2156   9.375   8.727   2.908
  144LIG    OD2 2157   9.200   8.651   2.798
  144LIG      C 2158   9.485   8.853   2.577
  144LIG    OT1 2159   9.567   8.869   2.483
  144LIG    OT2 2160   9.478   8.933   2.673
  145LIG      N 2161   1.875   1.830   7.311
  145LIG     H1 2162   1.777   1.816   7.277
  145LIG     H2 2163   1.935   1.751   7.278
  145LIG     H3 2164   1.877   1.828   7.415
  145LIG     CA 2165   1.930   1.961   7.263
  145LIG     HA 2166   1.965   1.944   7.163
  145LIG     CB 2167   1.813   2.064   7.265
  145LIG    HB1 2168   1.794   2.104   7.366
  145LIG    HB2 2169   1.719   2.017   7.228
  145LIG     CG 2170   1.842   2.175   7.167
  145LIG    OD1 2171   1.817   2.294   7.200
  145LIG    OD2 2172   1.883   2.144   7.052
  145LIG      C 2173   2.051   2.016   7.347
  145LIG    OT1 2174   2.092   1.951   7.446
  145LIG    OT2 2175   2.105   2.126   7.316
  146LIG      N 2176   1.180   9.524   3.200
  146LIG     H1 2177   1.101   9.588   3.178
  146LIG     H2 2178   1.201   9.466   3.116
  146LIG     H3 2179   1.152   9.460   3.277
  146LIG     CA 2180   1.304   9.598   3.239
  146LIG     HA 2181   1.292   9.699   3.203
  146LIG     CB 2182   1.315   9.593   3.394
  146LIG    HB1 2183   1.352   9.494   3.429
  146LIG    HB2 2184   1.216   9.613   3.440
  146LIG     CG 2185   1.406   9.703   3.443
  146LIG    OD1 2186   1.490   9.676   3.533
  146LIG    OD2 2187   1.385   9.820   3.402
  146LIG      C 2188   1.428   9.538   3.166
  146LIG    OT1 2189   1.408   9.454   3.074
  146LIG    OT2 2190   1.543   9.573   3.200
  147LIG      N 2191   1.349   5.495   5.026
  147LIG     H1 2192   1.427   5.434   5.058
  147LIG     H2 2193   1.274   5.434   4.989
  147LIG     H3 2194   1.380   5.560   4.951
  147LIG     CA 2195   1.295   5.573   5.142
  147LIG     HA 2196   1.259   5.504   5.217
  147LIG     CB 2197   1.413   5.661   5.194
  147LIG    HB1 2198   1.426   5.753   5.132
  147LIG    HB2 2199   1.508   5.604   5.191
  147LIG     CG 2200   1.394   5.700   5.339
  147LIG    OD1 2201   1.413   5.820   5.372
  147LIG    OD2 2202   1.376   5.608   5.424
  147LIG      C 2203   1.177   5.662   5.095
  147LIG    OT1 2204   1.187   5.722   4.984
  147LIG    OT2 2205   1.073   5.669   5.165
  148LIG      N 2206   2.938   9.502   7.948
  148LIG     H1 2207   2.897   9.546   7.863
  148LIG     H2 2208   3.040   9.490   7.936
  148LIG     H3 2209   2.894   9.408   7.961
  148LIG     CA 2210   2.911   9.582   8.071
  148LIG     HA 2211   2.920   9.686   8.044
  148LIG     CB 2212   2.766   9.546   8.113
  148LIG    HB1 2213   2.765   9.451   8.170
  148LIG    HB2 2214   2.700   9.535   8.024
  148LIG     CG 2215   2.697   9.651   8.197
  148LIG    OD1 2216   2.587   9.617   8.246
  148LIG    OD2 2217   2.744   9.767   8.206
  148LIG      C 2218   3.016   9.553   8.182
  148LIG    OT1 2219   3.108   9.470   8.160
  148LIG    OT2 2220   3.008   9.616   8.290
  149LIG      N 2221   2.430   8.594   6.289
  149LIG     H1 2222   2.384   8.594   6.196
  149LIG     H2 2223   2.361   8.565   6.361
  149LIG     H3 2224   2.465   8.689   6.312
  149LIG     CA 2225   2.552   8.507   6.290
  149LIG     HA 2226   2.524   8.412   6.334
  149LIG     CB 2227   2.597   8.491   6.141
  149LIG    HB1 2228   2.655   8.581   6.110
  149LIG    HB2 2229   2.509   8.482   6.074
  149LIG     CG 2230   2.680   8.368   6.115
  149LIG    OD1 2231   2.732   8.356   6.001
  149LIG    OD2 2232   2.689   8.277   6.202
  149LIG      C 2233   2.663   8.571   6.379
  149LIG    OT1 2234   2.647   8.689   6.421
  149LIG    OT2 2235   2.766   8.505   6.407
  150LIG      N 2236   9.399   5.170   4.320
  150LIG     H1 2237   9.434   5.266   4.299
  150LIG     H2 2238   9.437   5.134   4.409
  150LIG     H3 2239   9.433   5.108   4.244
  150LIG     CA 2240   9.249   5.165   4.330
  150LIG     HA 2241   9.214   5.262   4.361
  150LIG     CB 2242   9.198   5.132   4.187
  150LIG    HB1 2243   9.233   5.031   4.156
  150LIG    HB2 2244   9.237   5.206   4.115
  150LIG     CG 2245   9.047   5.138   4.174
  150LIG    OD1 2246   8.994   5.056   4.093
  150LIG    OD2 2247   8.981   5.228   4.232
  150LIG      C 2248   9.207   5.063   4.440
  150LIG    OT1 2249   9.295   4.999   4.503
  150LIG    OT2 2250   9.085   5.052   4.471
  151LIG      N 2251   9.538   6.978   0.793
  151LIG     H1 2252   9.609   6.908   0.764
  151LIG     H2 2253   9.582   7.071   0.810
  151LIG     H3 2254   9.495   6.947   0.883
  151LIG     CA 2255   9.426   6.984   0.695
  151LIG     HA 2256   9.466   7.029   0.605
  151LIG     CB 2257   9.382   6.836   0.673
  151LIG    HB1 2258   9.312   6.804   0.753
  151LIG    HB2 2259   9.469   6.768   0.676
  151LIG     CG 2260   9.319   6.814   0.537
  151LIG    OD1 2261   9.228   6.727   0.527
  151LIG    OD2 2262   9.367   6.873   0.437
  151LIG      C 2263   9.309   7.075   0.745
  151LIG    OT1 2264   9.319   7.130   0.858
  151LIG    OT2 2265   9.209   7.093   0.672
  152LIG      N 2266   8.740   0.423   0.349
  152LIG     H1 2267   8.796   0.338   0.371
  152LIG     H2 2268   8.737   0.442   0.247
  152LIG     H3 2269   8.786   0.504   0.393
  152LIG     CA 2270   8.604   0.409   0.406
  152LIG     HA 2271   8.568   0.310   0.380
  152LIG     CB 2272   8.622   0.430   0.560
  152LIG    HB1 2273   8.591   0.533   0.587
  152LIG    HB2 2274   8.727   0.417   0.593
  152LIG     CG 2275   8.544   0.331   0.645
  152LIG    OD1 2276   8.531   0.362   0.766
  152LIG    OD2 2277   8.511   0.220   0.596
  152LIG      C 2278   8.507   0.514   0.343
  152LIG    OT1 2279   8.554   0.613   0.283
  152LIG    OT2 2280   8.382   0.494   0.349
  153LIG      N 2281   8.040   3.857   4.322
  153LIG     H1 2282   8.127   3.803   4.303
  153LIG     H2 2283   8.027   3.863   4.425
  153LIG     H3 2284   7.958   3.807   4.282
  153LIG     CA 2285   8.047   3.995   4.267
  153LIG     HA 2286   8.130   4.043   4.318
  153LIG     CB 2287   8.073   3.984   4.114
  153LIG    HB1 2288   7.980   3.962   4.058
  153LIG    HB2 2289   8.147   3.904   4.091
  153LIG     CG 2290   8.134   4.112   4.061
  153LIG    OD1 2291   8.105   4.148   3.945
  153LIG    OD2 2292   8.221   4.170   4.132
  153LIG      C 2293   7.919   4.078   4.297
  153LIG    OT1 2294   7.817   4.022   4.345
  153LIG    OT2 2295   7.921   4.202   4.273
  154LIG      N 2296   9.815   3.132   4.373
  154LIG     H1 2297   9.915   3.162   4.371
  154LIG     H2 2298   9.797   3.061   4.299
  154LIG     H3 2299   9.751   3.212   4.353
  154LIG     CA 2300   9.775   3.069   4.502
  154LIG     HA 2301   9.860   3.016   4.541
  154LIG     CB 2302   9.728   3.184   4.596
  154LIG    HB1 2303   9.624   3.215   4.571
  154LIG    HB2 2304   9.795   3.273   4.586
  154LIG     CG 2305   9.732   3.145   4.742
  154LIG    OD1 2306   9.654   3.206   4.820
  154LIG    OD2 2307   9.825   3.069   4.780
  154LIG      C 2308   9.661   2.966   4.478
  154LIG    OT1 2309   9.612   2.954   4.362
  154LIG    OT2 2310   9.619   2.897   4.574
  155LIG      N 2311   9.524   0.876   4.627
  155LIG     H1 2312   9.620   0.908   4.654
  155LIG     H2 2313   9.456   0.908   4.699
  155LIG     H3 2314   9.525   0.772   4.622
  155LIG     CA 2315   9.482   0.939   4.500
  155LIG     HA 2316   9.552   1.020   4.484
  155LIG     CB 2317   9.486   0.836   4.383
  155LIG    HB1 2318   9.385   0.800   4.354
  155LIG    HB2 2319   9.549   0.748   4.408
  155LIG     CG 2320   9.554   0.903   4.265
  155LIG    OD1 2321   9.500   0.902   4.152
  155LIG    OD2 2322   9.669   0.949   4.286
  155LIG      C 2323   9.344   1.009   4.516
  155LIG    OT1 2324   9.306   1.044   4.631
  155LIG    OT2 2325   9.273   1.030   4.414
  156LIG      N 2326   1.502   4.252   0.892
  156LIG     H1 2327   1.481   4.165   0.945
  156LIG     H2 2328   1.471   4.335   0.948
  156LIG     H3 2329   1.447   4.251   0.804
  156LIG     CA 2330   1.647   4.263   0.860
  156LIG     HA 2331   1.700   4.273   0.953
  156LIG     CB 2332   1.683   4.131   0.788
  156LIG    HB1 2333   1.642   4.129   0.685
  156LIG    HB2 2334   1.642   4.043   0.843
  156LIG     CG 2335   1.833   4.108   0.781
  156LIG    OD1 2336   1.875   4.042   0.682
  156LIG    OD2 2337   1.907   4.142   0.877
  156LIG      C 2338   1.680   4.388   0.773
  156LIG    OT1 2339   1.587   4.458   0.724
  156LIG    OT2 2340   1.800   4.419   0.754
  157LIG      N 2341   2.050   2.148   6.602
  157LIG     H1 2342   1.987   2.114   6.677
  157LIG     H2 2343   2.009   2.233   6.558
  157LIG     H3 2344   2.054   2.076   6.527
  157LIG     CA 2345   2.185   2.177   6.658
  157LIG     HA 2346   2.172   2.253   6.733
  157LIG     CB 2347   2.237   2.044   6.721
  157LIG    HB1 2348   2.262   1.970   6.643
  157LIG    HB2 2349   2.159   2.000   6.787
  157LIG     CG 2350   2.356   2.071   6.809
  157LIG    OD1 2351   2.457   1.996   6.800
  157LIG    OD2 2352   2.350   2.164   6.893
  157LIG      C 2353   2.285   2.233   6.552
  157LIG    OT1 2354   2.255   2.226   6.430
  157LIG    OT2 2355   2.392   2.287   6.591
  158LIG      N 2356   6.503   1.509   8.170
  158LIG     H1 2357   6.501   1.514   8.066
  158LIG     H2 2358   6.555   1.589   8.210
  158LIG     H3 2359   6.559   1.425   8.195
  158LIG     CA 2360   6.366   1.495   8.227
  158LIG     HA 2361   6.326   1.594   8.241
  158LIG     CB 2362   6.276   1.414   8.129
  158LIG    HB1 2363   6.183   1.382   8.181
  158LIG    HB2 2364   6.327   1.323   8.092
  158LIG     CG 2365   6.232   1.498   8.011
  158LIG    OD1 2366   6.162   1.445   7.921
  158LIG    OD2 2367   6.267   1.619   8.004
  158LIG      C 2368   6.366   1.431   8.369
  158LIG    OT1 2369   6.476   1.401   8.424
  158LIG    OT2 2370   6.256   1.417   8.428
  159LIG      N 2371   2.328   0.700   1.753
  159LIG     H1 2372   2.274   0.615   1.728
  159LIG     H2 2373   2.289   0.739   1.841
  159LIG     H3 2374   2.314   0.773   1.680
  159LIG     CA 2375   2.474   0.677   1.780
  159LIG     HA 2376   2.482   0.585   1.836
  159LIG     CB 2377   2.550   0.664   1.645
  159LIG    HB1 2378   2.556   0.763   1.594
  159LIG    HB2 2379   2.495   0.593   1.578
  159LIG     CG 2380   2.689   0.605   1.658
  159LIG    OD1 2381   2.782   0.652   1.588
  159LIG    OD2 2382   2.706   0.503   1.730
  159LIG      C 2383   2.528   0.790   1.875
  159LIG    OT1 2384   2.444   0.866   1.931
  159LIG    OT2 2385   2.651   0.799   1.898
  160LIG      N 2386   1.128   3.250   4.590
  160LIG     H1 2387   1.081   3.314   4.523
  160LIG     H2 2388   1.142   3.158   4.544
  160LIG     H3 2389   1.068   3.231   4.673
  160LIG     CA 2390   1.259   3.303   4.639
  160LIG     HA 2391   1.316   3.332   4.552
  160LIG     CB 2392   1.230   3.427   4.730
  160LIG    HB1 2393   1.197   3.394   4.830
  160LIG    HB2 2394   1.150   3.491   4.686
  160LIG     CG 2395   1.351   3.517   4.745
  160LIG    OD1 2396   1.349   3.604   4.838
  160LIG    OD2 2397   1.444   3.512   4.661
  160LIG      C 2398   1.342   3.195   4.715
  160LIG    OT1 2399   1.295   3.079   4.730
  160LIG    OT2 2400   1.457   3.223   4.757
  161LIG      N 2401   3.363   1.627   2.999
  161LIG     H1 2402   3.398   1.550   3.058
  161LIG     H2 2403   3.270   1.659   3.034
  161LIG     H3 2404   3.351   1.592   2.902
  161LIG     CA 2405   3.454   1.745   3.002
  161LIG     HA 2406   3.512   1.736   3.092
  161LIG     CB 2407   3.544   1.742   2.876
  161LIG    HB1 2408   3.488   1.774   2.785
  161LIG    HB2 2409   3.585   1.640   2.859
  161LIG     CG 2410   3.663   1.832   2.899
  161LIG    OD1 2411   3.691   1.919   2.813
  161LIG    OD2 2412   3.728   1.816   3.006
  161LIG      C 2413   3.372   1.878   3.015
  161LIG    OT1 2414   3.247   1.871   3.026
  161LIG    OT2 2415   3.432   1.988   3.016
  162LIG      N 2416   5.924   8.979   4.931
  162LIG     H1 2417   5.898   9.076   4.955
  162LIG     H2 2418   5.962   8.977   4.834
  162LIG     H3 2419   5.840   8.918   4.935
  162LIG     CA 2420   6.026   8.919   5.022
  162LIG     HA 2421   6.118   8.973   5.008
  162LIG     CB 2422   5.972   8.934   5.167
  162LIG    HB1 2423   5.888   8.864   5.186
  162LIG    HB2 2424   5.935   9.038   5.183
  162LIG     CG 2425   6.077   8.912   5.274
  162LIG    OD1 2426   6.041   8.862   5.383
  162LIG    OD2 2427   6.193   8.957   5.257
  162LIG      C 2428   6.051   8.769   4.983
  162LIG    OT1 2429   5.978   8.714   4.896
  162LIG    OT2 2430   6.147   8.707   5.035
  163LIG      N 2431   6.611   9.056   0.393
  163LIG     H1 2432   6.702   9.021   0.357
  163LIG     H2 2433   6.621   9.079   0.494
  163LIG     H3 2434   6.542   8.978   0.385
  163LIG     CA 2435   6.556   9.178   0.327
  163LIG     HA 2436   6.638   9.232   0.282
  163LIG     CB 2437   6.455   9.128   0.221
  163LIG    HB1 2438   6.363   9.088   0.270
  163LIG    HB2 2439   6.501   9.047   0.160
  163LIG     CG 2440   6.417   9.235   0.122
  163LIG    OD1 2441   6.303   9.225   0.068
  163LIG    OD2 2442   6.502   9.320   0.087
  163LIG      C 2443   6.492   9.271   0.436
  163LIG    OT1 2444   6.502   9.237   0.558
  163LIG    OT2 2445   6.433   9.376   0.402
  164LIG      N 2446   8.342   4.485   6.557
  164LIG     H1 2447   8.384   4.491   6.651
  164LIG     H2 2448   8.311   4.387   6.539
  164LIG     H3 2449   8.413   4.509   6.485
  164LIG     CA 2450   8.224   4.577   6.545
  164LIG     HA 2451   8.171   4.568   6.639
  164LIG     CB 2452   8.278   4.722   6.524
  164LIG    HB1 2453   8.307   4.740   6.418
  164LIG    HB2 2454   8.366   4.741   6.589
  164LIG     CG 2455   8.173   4.822   6.566
  164LIG    OD1 2456   8.151   4.924   6.494
  164LIG    OD2 2457   8.114   4.804   6.676
  164LIG      C 2458   8.125   4.536   6.432
  164LIG    OT1 2459   8.149   4.433   6.365
  164LIG    OT2 2460   8.021   4.604   6.413
  165LIG      N 2461   8.116   3.827   1.534
  165LIG     H1 2462   8.157   3.874   1.618
  165LIG     H2 2463   8.181   3.755   1.498
  165LIG     H3 2464   8.105   3.898   1.459
  165LIG     CA 2465   7.977   3.778   1.563
  165LIG     HA 2466   7.978   3.671   1.554
  165LIG     CB 2467   7.942   3.824   1.707
  165LIG    HB1 2468   7.927   3.934   1.710
  165LIG    HB2 2469   8.026   3.800   1.776
  165LIG     CG 2470   7.820   3.753   1.762
  165LIG    OD1 2471   7.752   3.813   1.849
  165LIG    OD2 2472   7.798   3.634   1.728
  165LIG      C 2473   7.878   3.835   1.457
  165LIG    OT1 2474   7.924   3.904   1.361
  165LIG    OT2 2475   7.754   3.815   1.468
  166LIG      N 2476   8.445   7.141   4.654
  166LIG     H1 2477   8.483   7.047   4.632
  166LIG     H2 2478   8.425   7.192   4.566
  166LIG     H3 2479   8.515   7.197   4.707
  166LIG     CA 2480   8.318   7.128   4.734
  166LIG     HA 2481   8.263   7.046   4.691
  166LIG     CB 2482   8.356   7.104   4.883
  166LIG    HB1 2483   8.382   7.198   4.935
  166LIG    HB2 2484   8.442   7.035   4.891
  166LIG     CG 2485   8.242   7.037   4.955
  166LIG    OD1 2486   8.203   7.080   5.067
  166LIG    OD2 2487   8.195   6.931   4.906
  166LIG      C 2488   8.226   7.253   4.724
  166LIG    OT1 2489   8.271   7.357   4.667
  166LIG    OT2 2490   8.111   7.249   4.773
  167LIG      N 2491   3.815   9.587   9.089
  167LIG     H1 2492   3.817   9.674   9.146
  167LIG     H2 2493   3.768   9.606   8.998
  167LIG     H3 2494   3.762   9.512   9.138
  167LIG     CA 2495   3.952   9.534   9.060
  167LIG     HA 2496   4.004   9.610   9.005
  167LIG     CB 2497   4.016   9.506   9.199
  167LIG    HB1 2498   3.985   9.405   9.233
  167LIG    HB2 2499   3.983   9.580   9.275
  167LIG     CG 2500   4.167   9.512   9.200
  167LIG    OD1 2501   4.223   9.478   9.308
  167LIG    OD2 2502   4.230   9.556   9.101
  167LIG      C 2503   3.943   9.405   8.971
  167LIG    OT1 2504   3.830   9.353   8.950
  167LIG    OT2 2505   4.047   9.358   8.919
  168LIG      N 2506   2.683   1.812   8.605
  168LIG     H1 2507   2.724   1.719   8.627
  168LIG     H2 2508   2.671   1.865   8.693
  168LIG     H3 2509   2.590   1.797   8.562
  168LIG     CA 2510   2.774   1.890   8.515
  168LIG     HA 2511   2.874   1.877   8.554
  168LIG     CB 2512   2.758   1.834   8.371
  168LIG    HB1 2513   2.671   1.878   8.318
  168LIG    HB2 2514   2.746   1.723   8.373
  168LIG     CG 2515   2.885   1.859   8.292
  168LIG    OD1 2516   2.876   1.887   8.169
  168LIG    OD2 2517   2.994   1.834   8.348
  168LIG      C 2518   2.742   2.043   8.522
  168LIG    OT1 2519   2.635   2.081   8.578
  168LIG    OT2 2520   2.824   2.125   8.474
  169LIG      N 2521   9.208   7.528   2.148
  169LIG     H1 2522   9.217   7.444   2.210
  169LIG     H2 2523   9.227   7.503   2.049
  169LIG     H3 2524   9.280   7.598   2.174
  169LIG     CA 2525   9.072   7.589   2.158
  169LIG     HA 2526   9.003   7.506   2.165
  169LIG     CB 2527   9.068   7.678   2.286
  169LIG    HB1 2528   9.092   7.784   2.260
  169LIG    HB2 2529   9.141   7.645   2.363
  169LIG     CG 2530   8.933   7.674   2.354
  169LIG    OD1 2531   8.903   7.768   2.433
  169LIG    OD2 2532   8.860   7.572   2.340
  169LIG      C 2533   9.033   7.666   2.028
  169LIG    OT1 2534   9.116   7.672   1.933
  169LIG    OT2 2535   8.918   7.716   2.020
  170LIG      N 2536   7.176   8.353   9.591
  170LIG     H1 2537   7.189   8.250   9.600
  170LIG     H2 2538   7.203   8.381   9.495
  170LIG     H3 2539   7.238   8.404   9.657
  170LIG     CA 2540   7.035   8.395   9.614
  170LIG     HA 2541   6.973   8.310   9.588
  170LIG     CB 2542   7.023   8.431   9.765
  170LIG    HB1 2543   7.043   8.539   9.783
  170LIG    HB2 2544   7.094   8.373   9.827
  170LIG     CG 2545   6.886   8.396   9.820
  170LIG    OD1 2546   6.843   8.462   9.918
  170LIG    OD2 2547   6.831   8.291   9.779
  170LIG      C 2548   6.994   8.512   9.520
  170LIG    OT1 2549   7.076   8.552   9.432
  170LIG    OT2 2550   6.879   8.563   9.528
  171LIG      N 2551   5.869   3.516   0.371
  171LIG     H1 2552   5.910   3.560   0.287
  171LIG     H2 2553   5.889   3.577   0.453
  171LIG     H3 2554   5.912   3.422   0.385
  171LIG     CA 2555   5.721   3.501   0.356
  171LIG     HA 2556   5.688   3.596   0.317
  171LIG     CB 2557   5.695   3.386   0.255
  171LIG    HB1 2558   5.680   3.290   0.308
  171LIG    HB2 2559   5.779   3.374   0.184
  171LIG     CG 2560   5.573   3.415   0.170
  171LIG    OD1 2561   5.537   3.328   0.086
  171LIG    OD2 2562   5.517   3.527   0.180
  171LIG      C 2563   5.648   3.485   0.494
  171LIG    OT1 2564   5.711   3.509   0.601
  171LIG    OT2 2565   5.527   3.452   0.496
  172LIG      N 2566   2.057   5.660   9.656
  172LIG     H1 2567   1.956   5.638   9.667
  172LIG     H2 2568   2.108   5.569   9.652
  172LIG     H3 2569   2.089   5.711   9.741
  172LIG     CA 2570   2.084   5.735   9.532
  172LIG     HA 2571   2.001   5.720   9.465
  172LIG     CB 2572   2.099   5.883   9.575
  172LIG    HB1 2573   2.196   5.904   9.626
  172LIG    HB2 2574   2.017   5.913   9.644
  172LIG     CG 2575   2.085   5.971   9.454
  172LIG    OD1 2576   2.175   6.055   9.427
  172LIG    OD2 2577   1.977   5.964   9.391
  172LIG      C 2578   2.214   5.682   9.465
  172LIG    OT1 2579   2.304   5.629   9.535
  172LIG    OT2 2580   2.224   5.690   9.340
  173LIG      N 2581   8.640   3.047   9.857
  173LIG     H1 2582   8.645   3.150   9.861
  173LIG     H2 2583   8.611   3.009   9.949
  173LIG     H3 2584   8.733   3.006   9.835
  173LIG     CA 2585   8.540   3.008   9.752
  173LIG     HA 2586   8.446   3.049   9.783
  173LIG     CB 2587   8.589   3.066   9.616
  173LIG    HB1 2588   8.646   2.991   9.558
  173LIG    HB2 2589   8.654   3.155   9.631
  173LIG     CG 2590   8.471   3.113   9.535
  173LIG    OD1 2591   8.399   3.032   9.473
  173LIG    OD2 2592   8.442   3.236   9.538
  173LIG      C 2593   8.523   2.854   9.743
  173LIG    OT1 2594   8.607   2.779   9.799
  173LIG    OT2 2595   8.424   2.807   9.682
  174LIG      N 2596   4.626   8.043   6.877
  174LIG     H1 2597   4.640   8.127   6.936
  174LIG     H2 2598   4.703   8.045   6.807
  174LIG     H3 2599   4.538   8.054   6.823
  174LIG     CA 2600   4.628   7.913   6.952
  174LIG     HA 2601   4.725   7.902   6.999
  174LIG     CB 2602   4.514   7.926   7.056
  174LIG    HB1 2603   4.415   7.938   7.006
  174LIG    HB2 2604   4.531   8.014   7.122
  174LIG     CG 2605   4.507   7.805   7.146
  174LIG    OD1 2606   4.396   7.772   7.195
  174LIG    OD2 2607   4.614   7.747   7.178
  174LIG      C 2608   4.603   7.791   6.858
  174LIG    OT1 2609   4.522   7.804   6.763
  174LIG    OT2 2610   4.662   7.682   6.876
  175LIG      N 2611   6.024   8.780   8.260
  175LIG     H1 2612   6.105   8.747   8.316
  175LIG     H2 2613   5.938   8.776   8.318
  175LIG     H3 2614   6.007   8.721   8.176
  175LIG     CA 2615   6.040   8.923   8.219
  175LIG     HA 2616   6.106   8.971   8.289
  175LIG     CB 2617   6.092   8.927   8.071
  175LIG    HB1 2618   6.030   8.996   8.011
  175LIG    HB2 2619   6.089   8.828   8.021
  175LIG     CG 2620   6.235   8.974   8.059
  175LIG    OD1 2621   6.275   9.006   7.944
  175LIG    OD2 2622   6.313   8.966   8.158
  175LIG      C 2623   5.904   8.998   8.230
  175LIG    OT1 2624   5.798   8.933   8.254
  175LIG    OT2 2625   5.903   9.122   8.213
  176LIG      N 2626   1.681   0.277   8.286
  176LIG     H1 2627   1.714   0.367   8.327
  176LIG     H2 2628   1.711   0.277   8.186
  176LIG     H3 2629   1.577   0.271   8.289
  176LIG     CA 2630   1.742   0.159   8.355
  176LIG     HA 2631   1.848   0.177   8.359
  176LIG     CB 2632   1.679   0.146   8.497
  176LIG    HB1 2633   1.599   0.069   8.500
  176LIG    HB2 2634   1.635   0.242   8.531
  176LIG     CG 2635   1.786   0.112   8.598
  176LIG    OD1 2636   1.767   0.018   8.679
  176LIG    OD2 2637   1.885   0.190   8.608
  176LIG      C 2638   1.724   0.027   8.274
  176LIG    OT1 2639   1.670   0.032   8.160
  176LIG    OT2 2640   1.765   9.919   8.322
  177LIG      N 2641   4.960   0.805   9.609
  177LIG     H1 2642   4.972   0.892   9.665
  177LIG     H2 2643   4.942   0.828   9.509
  177LIG     H3 2644   4.883   0.748   9.648
  177LIG     CA 2645   5.089   0.731   9.619
  177LIG     HA 2646   5.166   0.798   9.584
  177LIG     CB 2647   5.117   0.698   9.768
  177LIG    HB1 2648   5.196   0.621   9.777
  177LIG    HB2 2649   5.027   0.662   9.822
  177LIG     CG 2650   5.169   0.824   9.835
  177LIG    OD1 2651   5.238   0.812   9.938
  177LIG    OD2 2652   5.138   0.935   9.785
  177LIG      C 2653   5.108   0.609   9.524
  177LIG    OT1 2654   5.021   0.583   9.436
  177LIG    OT2 2655   5.215   0.544   9.533
  178LIG      N 2656   8.429   9.503   7.071
  178LIG     H1 2657   8.476   9.576   7.128
  178LIG     H2 2658   8.480   9.491   6.981
  178LIG     H3 2659   8.333   9.537   7.049
  178LIG     CA 2660   8.423   9.375   7.147
  178LIG     HA 2661   8.525   9.348   7.170
  178LIG     CB 2662   8.339   9.406   7.275
  178LIG    HB1 2663   8.233   9.377   7.260
  178LIG    HB2 2664   8.340   9.514   7.299
  178LIG     CG 2665   8.391   9.337   7.399
  178LIG    OD1 2666   8.478   9.248   7.390
  178LIG    OD2 2667   8.341   9.372   7.509
  178LIG      C 2668   8.361   9.260   7.061
  178LIG    OT1 2669   8.297   9.289   6.956
  178LIG    OT2 2670   8.377   9.140   7.095
  179LIG      N 2671   8.669   3.794   0.608
  179LIG     H1 2672   8.722   3.706   0.628
  179LIG     H2 2673   8.705   3.869   0.670
  179LIG     H3 2674   8.570   3.777   0.633
  179LIG     CA 2675   8.677   3.839   0.465
  179LIG     HA 2676   8.777   3.877   0.448
  179LIG     CB 2677   8.649   3.714   0.376
  179LIG    HB1 2678   8.543   3.683   0.382
  179LIG    HB2 2679   8.712   3.629   0.410
  179LIG     CG 2680   8.687   3.738   0.231
  179LIG    OD1 2681   8.607   3.697   0.143
  179LIG    OD2 2682   8.801   3.786   0.207
  179LIG      C 2683   8.575   3.953   0.437
  179LIG    OT1 2684   8.481   3.973   0.519
  179LIG    OT2 2685   8.587   4.024   0.333
  180LIG      N 2686   7.947   7.174   9.056
  180LIG     H1 2687   7.974   7.205   8.960
  180LIG     H2 2688   7.844   7.160   9.064
  180LIG     H3 2689   7.974   7.245   9.127
  180LIG     CA 2690   8.013   7.045   9.089
  180LIG     HA 2691   7.984   6.973   9.014
  180LIG     CB 2692   8.165   7.072   9.092
  180LIG    HB1 2693   8.196   7.118   9.187
  180LIG    HB2 2694   8.195   7.139   9.008
  180LIG     CG 2695   8.241   6.943   9.070
  180LIG    OD1 2696   8.331   6.912   9.151
  180LIG    OD2 2697   8.218   6.876   8.966
  180LIG      C 2698   7.963   6.995   9.228
  180LIG    OT1 2699   7.910   7.078   9.307
  180LIG    OT2 2700   7.970   6.873   9.255
  181LIG      N 2701   1.022   1.983   0.633
  181LIG     H1 2702   0.970   2.073   0.626
  181LIG     H2 2703   1.022   1.937   0.540
  181LIG     H3 2704   0.977   1.918   0.700
  181LIG     CA 2705   1.165   2.003   0.671
  181LIG     HA 2706   1.190   2.105   0.645
  181LIG     CB 2707   1.178   1.977   0.823
  181LIG    HB1 2708   1.177   1.869   0.846
  181LIG    HB2 2709   1.093   2.025   0.878
  181LIG     CG 2710   1.303   2.039   0.880
  181LIG    OD1 2711   1.372   1.970   0.961
  181LIG    OD2 2712   1.331   2.159   0.854
  181LIG      C 2713   1.255   1.910   0.584
  181LIG    OT1 2714   1.203   1.844   0.490
  181LIG    OT2 2715   1.378   1.904   0.607
  182LIG      N 2716   0.787   1.637   4.855
  182LIG     H1 2717   0.844   1.651   4.769
  182LIG     H2 2718   0.794   1.718   4.920
  182LIG     H3 2719   0.818   1.550   4.903
  182LIG     CA 2720   0.646   1.607   4.819
  182LIG     HA 2721   0.582   1.676   4.872
  182LIG     CB 2722   0.634   1.619   4.664
  182LIG    HB1 2723   0.664   1.524   4.616
  182LIG    HB2 2724   0.697   1.701   4.625
  182LIG     CG 2725   0.493   1.656   4.621
  182LIG    OD1 2726   0.453   1.620   4.508
  182LIG    OD2 2727   0.433   1.740   4.693
  182LIG      C 2728   0.614   1.462   4.867
  182LIG    OT1 2729   0.707   1.391   4.913
  182LIG    OT2 2730   0.496   1.421   4.861
  183LIG      N 2731   8.151   5.660   5.030
  183LIG     H1 2732   8.084   5.738   5.047
  183LIG     H2 2733   8.138   5.622   4.935
  183LIG     H3 2734   8.140   5.587   5.103
  183LIG     CA 2735   8.289   5.715   5.030
  183LIG     HA 2736   8.290   5.807   5.086
  183LIG     CB 2737   8.389   5.613   5.093
  183LIG    HB1 2738   8.492   5.650   5.078
  183LIG    HB2 2739   8.381   5.513   5.045
  183LIG     CG 2740   8.368   5.598   5.242
  183LIG    OD1 2741   8.455   5.542   5.312
  183LIG    OD2 2742   8.258   5.636   5.292
  183LIG      C 2743   8.327   5.748   4.883
  183LIG    OT1 2744   8.256   5.703   4.789
  183LIG    OT2 2745   8.424   5.825   4.864
  184LIG      N 2746   6.647   1.663   3.828
  184LIG     H1 2747   6.740   1.705   3.810
  184LIG     H2 2748   6.613   1.614   3.742
  184LIG     H3 2749   6.577   1.733   3.860
  184LIG     CA 2750   6.658   1.567   3.942
  184LIG     HA 2751   6.630   1.469   3.907
  184LIG     CB 2752   6.803   1.570   3.996
  184LIG    HB1 2753   6.808   1.512   4.091
  184LIG    HB2 2754   6.837   1.674   4.017
  184LIG     CG 2755   6.899   1.504   3.899
  184LIG    OD1 2756   7.021   1.504   3.927
  184LIG    OD2 2757   6.851   1.456   3.793
  184LIG      C 2758   6.557   1.606   4.052
  184LIG    OT1 2759   6.494   1.715   4.043
  184LIG    OT2 2760   6.539   1.526   4.147
  185LIG      N 2761   8.023   5.351   2.644
  185LIG     H1 2762   7.970   5.339   2.555
  185LIG     H2 2763   8.122   5.371   2.620
  185LIG     H3 2764   8.021   5.260   2.695
  185LIG     CA 2765   7.962   5.453   2.734
  185LIG     HA 2766   8.026   5.540   2.733
  185LIG     CB 2767   7.820   5.483   2.679
  185LIG    HB1 2768   7.751   5.399   2.702
  185LIG    HB2 2769   7.823   5.497   2.569
  185LIG     CG 2770   7.765   5.610   2.738
  185LIG    OD1 2771   7.657   5.608   2.803
  185LIG    OD2 2772   7.827   5.717   2.716
  185LIG      C 2773   7.951   5.401   2.880
  185LIG    OT1 2774   7.960   5.277   2.900
  185LIG    OT2 2775   7.928   5.483   2.972
  186LIG      N 2776   0.024   7.738   7.171
  186LIG     H1 2777   9.976   7.651   7.200
  186LIG     H2 2778   0.095   7.719   7.097
  186LIG     H3 2779   0.074   7.778   7.253
  186LIG     CA 2780   9.927   7.839   7.117
  186LIG     HA 2781   9.841   7.783   7.083
  186LIG     CB 2782   9.893   7.943   7.229
  186LIG    HB1 2783   9.932   8.044   7.203
  186LIG    HB2 2784   9.939   7.914   7.326
  186LIG     CG 2785   9.745   7.955   7.255
  186LIG    OD1 2786   9.704   8.053   7.322
  186LIG    OD2 2787   9.671   7.859   7.223
  186LIG      C 2788   9.983   7.911   6.991
  186LIG    OT1 2789   0.098   7.885   6.950
  186LIG    OT2 2790   9.910   7.996   6.933
  187LIG      N 2791   4.790   9.930   6.153
  187LIG     H1 2792   4.725   9.849   6.162
  187LIG     H2 2793   4.858   9.932   6.232
  187LIG     H3 2794   4.732   0.017   6.155
  187LIG     CA 2795   4.863   9.931   6.024
  187LIG     HA 2796   4.929   9.846   6.019
  187LIG     CB 2797   4.753   9.927   5.914
  187LIG    HB1 2798   4.702   0.026   5.906
  187LIG    HB2 2799   4.676   9.851   5.938
  187LIG     CG 2800   4.806   9.890   5.777
  187LIG    OD1 2801   4.927   9.865   5.761
  187LIG    OD2 2802   4.721   9.884   5.683
  187LIG      C 2803   4.947   0.062   6.024
  187LIG    OT1 2804   4.890   0.170   6.056
  187LIG    OT2 2805   5.071   0.053   6.003
  188LIG      N 2806   8.543   5.688   9.076
  188LIG     H1 2807   8.633   5.640   9.061
  188LIG     H2 2808   8.483   5.681   8.992
  188LIG     H3 2809   8.559   5.790   9.091
  188LIG     CA 2810   8.470   5.635   9.195
  188LIG     HA 2811   8.512   5.538   9.218
  188LIG     CB 2812   8.492   5.734   9.313
  188LIG    HB1 2813   8.428   5.824   9.301
  188LIG    HB2 2814   8.598   5.767   9.316
  188LIG     CG 2815   8.467   5.670   9.448
  188LIG    OD1 2816   8.391   5.729   9.529
  188LIG    OD2 2817   8.528   5.564   9.478
  188LIG      C 2818   8.320   5.611   9.161
  188LIG    OT1 2819   8.284   5.606   9.040
  188LIG    OT2 2820   8.236   5.595   9.253
  189LIG      N 2821   1.626   2.708   2.989
  189LIG     H1 2822   1.633   2.810   2.976
  189LIG     H2 2823   1.526   2.682   2.977
  189LIG     H3 2824   1.657   2.685   3.085
  189LIG     CA 2825   1.712   2.637   2.890
  189LIG     HA 2826   1.675   2.537   2.877
  189LIG     CB 2827   1.716   2.715   2.755
  189LIG    HB1 2828   1.790   2.670   2.687
  189LIG    HB2 2829   1.748   2.820   2.775
  189LIG     CG 2830   1.584   2.722   2.682
  189LIG    OD1 2831   1.586   2.699   2.558
  189LIG    OD2 2832   1.482   2.763   2.743
  189LIG      C 2833   1.860   2.627   2.937
  189LIG    OT1 2834   1.899   2.691   3.038
  189LIG    OT2 2835   1.939   2.560   2.867
  190LIG      N 2836   8.776   1.144   0.221
  190LIG     H1 2837   8.718   1.091   0.153
  190LIG     H2 2838   8.714   1.200   0.284
  190LIG     H3 2839   8.841   1.210   0.175
  190LIG     CA 2840   8.857   1.045   0.298
  190LIG     HA 2841   8.787   0.975   0.340
  190LIG     CB 2842   8.958   0.982   0.197
  190LIG    HB1 2843   9.063   1.011   0.221
  190LIG    HB2 2844   8.940   1.012   0.091
  190LIG     CG 2845   8.951   0.831   0.198
  190LIG    OD1 2846   9.043   0.766   0.142
  190LIG    OD2 2847   8.848   0.775   0.243
  190LIG      C 2848   8.932   1.107   0.419
  190LIG    OT1 2849   8.936   1.232   0.434
  190LIG    OT2 2850   8.987   1.029   0.501
  191LIG      N 2851   0.025   5.385   2.323
  191LIG     H1 2852   0.122   5.423   2.317
  191LIG     H2 2853   0.028   5.301   2.384
  191LIG     H3 2854   9.995   5.360   2.227
  191LIG     CA 2855   9.935   5.483   2.389
  191LIG     HA 2856   9.982   5.580   2.379
  191LIG     CB 2857   9.798   5.479   2.314
  191LIG    HB1 2858   9.735   5.396   2.351
  191LIG    HB2 2859   9.812   5.466   2.204
  191LIG     CG 2860   9.722   5.609   2.330
  191LIG    OD1 2861   9.604   5.614   2.289
  191LIG    OD2 2862   9.782   5.710   2.376
  191LIG      C 2863   9.923   5.451   2.542
  191LIG    OT1 2864   9.985   5.351   2.587
  191LIG    OT2 2865   9.856   5.525   2.618
  192LIG      N 2866   1.176   2.364   5.638
  192LIG     H1 2867   1.266   2.416   5.650
  192LIG     H2 2868   1.196   2.284   5.575
  192LIG     H3 2869   1.105   2.426   5.595
  192LIG     CA 2870   1.119   2.329   5.771
  192LIG     HA 2871   1.107   2.222   5.776
  192LIG     CB 2872   1.220   2.382   5.876
  192LIG    HB1 2873   1.212   2.493   5.887
  192LIG    HB2 2874   1.324   2.357   5.847
  192LIG     CG 2875   1.196   2.316   6.009
  192LIG    OD1 2876   1.174   2.388   6.110
  192LIG    OD2 2877   1.210   2.192   6.016
  192LIG      C 2878   0.978   2.396   5.785
  192LIG    OT1 2879   0.934   2.464   5.688
  192LIG    OT2 2880   0.915   2.382   5.892
  193LIG      N 2881   7.946   2.896   0.029
  193LIG     H1 2882   7.906   2.921   9.936
  193LIG     H2 2883   7.877   2.918   0.105
  193LIG     H3 2884   8.031   2.951   0.048
  193LIG     CA 2885   7.977   2.749   0.035
  193LIG     HA 2886   7.889   2.697   0.002
  193LIG     CB 2887   8.100   2.716   9.945
  193LIG    HB1 2888   8.172   2.650   9.999
  193LIG    HB2 2889   8.155   2.806   9.912
  193LIG     CG 2890   8.054   2.641   9.821
  193LIG    OD1 2891   8.112   2.533   9.792
  193LIG    OD2 2892   7.965   2.692   9.749
  193LIG      C 2893   7.998   2.701   0.181
  193LIG    OT1 2894   7.979   2.783   0.275
  193LIG    OT2 2895   8.028   2.580   0.202
  194LIG      N 2896   5.735   8.721   1.540
  194LIG     H1 2897   5.739   8.725   1.644
  194LIG     H2 2898   5.732   8.622   1.507
  194LIG     H3 2899   5.820   8.765   1.500
  194LIG     CA 2900   5.618   8.796   1.488
  194LIG     HA 2901   5.531   8.745   1.525
  194LIG     CB 2902   5.628   8.942   1.541
  194LIG    HB1 2903   5.671   9.010   1.464
  194LIG    HB2 2904   5.692   8.949   1.632
  194LIG     CG 2905   5.493   8.994   1.585
  194LIG    OD1 2906   5.478   9.119   1.591
  194LIG    OD2 2907   5.406   8.914   1.627
  194LIG      C 2908   5.611   8.787   1.332
  194LIG    OT1 2909   5.686   8.705   1.272
  194LIG    OT2 2910   5.529   8.859   1.269
  195LIG      N 2911   9.725   9.360   4.521
  195LIG     H1 2912   9.763   9.404   4.435
  195LIG     H2 2913   9.652   9.291   4.495
  195LIG     H3 2914   9.680   9.432   4.582
  195LIG     CA 2915   9.831   9.287   4.598
  195LIG     HA 2916   9.897   9.241   4.526
  195LIG     CB 2917   9.906   9.394   4.683
  195LIG    HB1 2918   9.848   9.417   4.775
  195LIG    HB2 2919   9.919   9.488   4.626
  195LIG     CG 2920   0.046   9.350   4.720
  195LIG    OD1 2921   0.094   9.389   4.831
  195LIG    OD2 2922   0.118   9.294   4.634
  195LIG      C 2923   9.770   9.174   4.687
  195LIG    OT1 2924   9.644   9.165   4.696
  195LIG    OT2 2925   9.845   9.093   4.746
  196LIG      N 2926   2.104   2.792   2.876
  196LIG     H1 2927   2.047   2.879   2.870
  196LIG     H2 2928   2.106   2.744   2.783
  196LIG     H3 2929   2.054   2.728   2.940
  196LIG     CA 2930   2.242   2.821   2.923
  196LIG     HA 2931   2.268   2.919   2.884
  196LIG     CB 2932   2.235   2.822   3.078
  196LIG    HB1 2933   2.233   2.717   3.116
  196LIG    HB2 2934   2.142   2.873   3.113
  196LIG     CG 2935   2.350   2.896   3.142
  196LIG    OD1 2936   2.379   2.868   3.261
  196LIG    OD2 2937   2.403   2.992   3.080
  196LIG      C 2938   2.347   2.720   2.868
  196LIG    OT1 2939   2.310   2.616   2.808
  196LIG    OT2 2940   2.469   2.747   2.884
  197LIG      N 2941   9.590   4.087   7.486
  197LIG     H1 2942   9.520   4.157   7.453
  197LIG     H2 2943   9.558   4.041   7.573
  197LIG     H3 2944   9.677   4.140   7.509
  197LIG     CA 2945   9.623   3.979   7.389
  197LIG     HA 2946   9.533   3.961   7.333
  197LIG     CB 2947   9.742   4.027   7.299
  197LIG    HB1 2948   9.838   3.986   7.337
  197LIG    HB2 2949   9.751   4.138   7.300
  197LIG     CG 2950   9.725   3.988   7.154
  197LIG    OD1 2951   9.812   4.025   7.071
  197LIG    OD2 2952   9.621   3.926   7.119
  197LIG      C 2953   9.651   3.846   7.467
  197LIG    OT1 2954   9.642   3.846   7.593
  197LIG    OT2 2955   9.676   3.741   7.404
  198LIG      N 2956   0.658   4.171   3.032
  198LIG     H1 2957   0.564   4.203   3.063
  198LIG     H2 2958   0.703   4.122   3.112
  198LIG     H3 2959   0.714   4.257   3.014
  198LIG     CA 2960   0.649   4.085   2.911
  198LIG     HA 2961   0.568   4.015   2.926
  198LIG     CB 2962   0.624   4.182   2.793
  198LIG    HB1 2963   0.718   4.226   2.754
  198LIG    HB2 2964   0.557   4.266   2.822
  198LIG     CG 2965   0.553   4.111   2.680
  198LIG    OD1 2966   0.601   4.116   2.564
  198LIG    OD2 2967   0.441   4.059   2.708
  198LIG      C 2968   0.779   4.003   2.884
  198LIG    OT1 2969   0.890   4.049   2.923
  198LIG    OT2 2970   0.772   3.892   2.824
  199LIG      N 2971   4.876   5.259   0.672
  199LIG     H1 2972   4.909   5.248   0.770
  199LIG     H2 2973   4.904   5.177   0.614
  199LIG     H3 2974   4.917   5.344   0.630
  199LIG     CA 2975   4.728   5.275   0.666
  199LIG     HA 2976   4.685   5.191   0.719
  199LIG     CB 2977   4.695   5.413   0.733
  199LIG    HB1 2978   4.667   5.488   0.657
  199LIG    HB2 2979   4.781   5.453   0.790
  199LIG     CG 2980   4.581   5.403   0.833
  199LIG    OD1 2981   4.557   5.504   0.903
  199LIG    OD2 2982   4.518   5.296   0.844
  199LIG      C 2983   4.676   5.266   0.519
  199LIG    OT1 2984   4.760   5.254   0.425
  199LIG    OT2 2985   4.553   5.266   0.496
  200LIG      N 2986   7.448   9.981   7.978
  200LIG     H1 2987   7.415   9.997   7.880
  200LIG     H2 2988   7.437   9.880   8.001
  200LIG     H3 2989   7.390   0.036   8.044
  200LIG     CA 2990   7.591   0.018   7.996
  200LIG     HA 2991   7.639   9.995   7.902
  200LIG     CB 2992   7.597   0.170   8.033
  200LIG    HB1 2993   7.635   0.184   8.136
  200LIG    HB2 2994   7.497   0.219   8.028
  200LIG     CG 2995   7.687   0.248   7.940
  200LIG    OD1 2996   7.694   0.372   7.955
  200LIG    OD2 2997   7.749   0.187   7.849
  200LIG      C 2998   7.660   9.927   8.102
  200LIG    OT1 2999   7.594   9.833   8.154
  200LIG    OT2 3000   7.781   9.947   8.132
  201LIG      N 3001   9.687   1.077   7.323
  201LIG     H1 3002   9.686   1.138   7.238
  201LIG     H2 3003   9.636   0.989   7.304
  201LIG     H3 3004   9.641   1.129   7.401
  201LIG     CA 3005   9.825   1.042   7.365
  201LIG     HA 3006   9.864   0.974   7.290
  201LIG     CB 3007   9.905   1.175   7.369
  201LIG    HB1 3008   9.888   1.227   7.465
  201LIG    HB2 3009   9.874   1.243   7.287
  201LIG     CG 3010   0.054   1.154   7.350
  201LIG    OD1 3011   0.128   1.248   7.387
  201LIG    OD2 3012   0.096   1.054   7.285
  201LIG      C 3013   9.826   0.968   7.503
  201LIG    OT1 3014   9.719   0.960   7.569
  201LIG    OT2 3015   9.932   0.915   7.544
  202LIG      N 3016   7.314   9.649   1.742
  202LIG     H1 3017   7.324   9.741   1.788
  202LIG     H2 3018   7.269   9.658   1.649
  202LIG     H3 3019   7.254   9.588   1.801
  202LIG     CA 3020   7.448   9.583   1.725
  202LIG     HA 3021   7.507   9.645   1.659
  202LIG     CB 3022   7.517   9.567   1.863
  202LIG    HB1 3023   7.591   9.485   1.857
  202LIG    HB2 3024   7.446   9.543   1.944
  202LIG     CG 3025   7.598   9.690   1.901
  202LIG    OD1 3026   7.689   9.673   1.986
  202LIG    OD2 3027   7.566   9.802   1.853
  202LIG      C 3028   7.439   9.444   1.655
  202LIG    OT1 3029   7.329   9.400   1.613
  202LIG    OT2 3030   7.546   9.379   1.642
  203LIG      N 3031   1.723   0.890   3.049
  203LIG     H1 3032   1.823   0.916   3.047
  203LIG     H2 3033   1.681   0.920   3.139
  203LIG     H3 3034   1.712   0.787   3.040
  203LIG     CA 3035   1.650   0.955   2.936
  203LIG     HA 3036   1.654   1.062   2.950
  203LIG     CB 3037   1.717   0.914   2.801
  203LIG    HB1 3038   1.648   0.937   2.717
  203LIG    HB2 3039   1.740   0.806   2.797
  203LIG     CG 3040   1.843   0.993   2.775
  203LIG    OD1 3041   1.888   0.994   2.658
  203LIG    OD2 3042   1.903   1.049   2.871
  203LIG      C 3043   1.500   0.916   2.931
  203LIG    OT1 3044   1.455   0.831   3.012
  203LIG    OT2 3045   1.429   0.973   2.843
  204LIG      N 3046   0.072   3.709   1.649
  204LIG     H1 3047   0.085   3.632   1.718
  204LIG     H2 3048   0.161   3.720   1.598
  204LIG     H3 3049   0.047   3.798   1.697
  204LIG     CA 3050   9.966   3.673   1.550
  204LIG     HA 3051   0.004   3.586   1.499
  204LIG     CB 3052   9.835   3.643   1.629
  204LIG    HB1 3053   9.781   3.736   1.656
  204LIG    HB2 3054   9.857   3.587   1.723
  204LIG     CG 3055   9.744   3.553   1.549
  204LIG    OD1 3056   9.619   3.562   1.561
  204LIG    OD2 3057   9.797   3.463   1.478
  204LIG      C 3058   9.943   3.785   1.443
  204LIG    OT1 3059   9.997   3.898   1.459
  204LIG    OT2 3060   9.871   3.758   1.343
  205LIG      N 3061   4.260   0.979   3.584
  205LIG     H1 3062   4.299   1.061   3.635
  205LIG     H2 3063   4.169   1.003   3.539
  205LIG     H3 3064   4.242   0.902   3.651
  205LIG     CA 3065   4.344   0.929   3.472
  205LIG     HA 3066   4.410   1.010   3.442
  205LIG     CB 3067   4.424   0.808   3.529
  205LIG    HB1 3068   4.354   0.722   3.538
  205LIG    HB2 3069   4.463   0.831   3.631
  205LIG     CG 3070   4.543   0.763   3.448
  205LIG    OD1 3071   4.598   0.654   3.484
  205LIG    OD2 3072   4.589   0.834   3.356
  205LIG      C 3073   4.249   0.897   3.352
  205LIG    OT1 3074   4.124   0.909   3.368
  205LIG    OT2 3075   4.298   0.864   3.241
  206LIG      N 3076   1.065   3.540   2.521
  206LIG     H1 3077   1.034   3.441   2.511
  206LIG     H2 3078   1.160   3.544   2.563
  206LIG     H3 3079   1.000   3.593   2.583
  206LIG     CA 3080   1.076   3.615   2.392
  206LIG     HA 3081   1.105   3.543   2.317
  206LIG     CB 3082   0.937   3.675   2.357
  206LIG    HB1 3083   0.906   3.754   2.429
  206LIG    HB2 3084   0.860   3.595   2.359
  206LIG     CG 3085   0.937   3.730   2.216
  206LIG    OD1 3086   0.874   3.837   2.193
  206LIG    OD2 3087   0.993   3.663   2.126
  206LIG      C 3088   1.195   3.716   2.405
  206LIG    OT1 3089   1.288   3.689   2.486
  206LIG    OT2 3090   1.201   3.820   2.334
  207LIG      N 3091   7.664   1.441   9.987
  207LIG     H1 3092   7.572   1.470   0.027
  207LIG     H2 3093   7.729   1.522   9.990
  207LIG     H3 3094   7.652   1.414   9.887
  207LIG     CA 3095   7.724   1.328   0.063
  207LIG     HA 3096   7.716   1.356   0.167
  207LIG     CB 3097   7.648   1.195   0.030
  207LIG    HB1 3098   7.715   1.122   9.979
  207LIG    HB2 3099   7.560   1.212   9.965
  207LIG     CG 3100   7.595   1.128   0.156
  207LIG    OD1 3101   7.559   1.008   0.153
  207LIG    OD2 3102   7.578   1.199   0.258
  207LIG      C 3103   7.877   1.317   0.037
  207LIG    OT1 3104   7.935   1.411   9.975
  207LIG    OT2 3105   7.941   1.217   0.079
  208LIG      N 3106   3.615   8.325   9.423
  208LIG     H1 3107   3.573   8.318   9.328
  208LIG     H2 3108   3.579   8.245   9.479
  208LIG     H3 3109   3.583   8.413   9.468
  208LIG     CA 3110   3.763   8.315   9.414
  208LIG     HA 3111   3.783   8.219   9.370
  208LIG     CB 3112   3.812   8.431   9.322
  208LIG    HB1 3113   3.826   8.524   9.381
  208LIG    HB2 3114   3.739   8.453   9.241
  208LIG     CG 3115   3.943   8.399   9.253
  208LIG    OD1 3116   4.004   8.491   9.194
  208LIG    OD2 3117   3.979   8.279   9.240
  208LIG      C 3118   3.831   8.316   9.554
  208LIG    OT1 3119   3.762   8.345   9.656
  208LIG    OT2 3120   3.953   8.286   9.565
  209LIG      N 3121   6.050   5.521   0.662
  209LIG     H1 3122   5.972   5.587   0.684
  209LIG     H2 3123   6.132   5.575   0.629
  209LIG     H3 3124   6.024   5.455   0.585
  209LIG     CA 3125   6.095   5.443   0.781
  209LIG     HA 3126   6.189   5.487   0.811
  209LIG     CB 3127   5.989   5.454   0.894
  209LIG    HB1 3128   5.919   5.368   0.895
  209LIG    HB2 3129   5.929   5.547   0.885
  209LIG     CG 3130   6.060   5.468   1.026
  209LIG    OD1 3131   6.020   5.397   1.122
  209LIG    OD2 3132   6.146   5.559   1.037
  209LIG      C 3133   6.122   5.294   0.748
  209LIG    OT1 3134   6.088   5.247   0.636
  209LIG    OT2 3135   6.177   5.222   0.835
  210LIG      N 3136   8.729   2.423   3.790
  210LIG     H1 3137   8.781   2.398   3.703
  210LIG     H2 3138   8.790   2.481   3.851
  210LIG     H3 3139   8.705   2.336   3.841
  210LIG     CA 3140   8.602   2.497   3.759
  210LIG     HA 3141   8.629   2.602   3.755
  210LIG     CB 3142   8.550   2.449   3.620
  210LIG    HB1 3143   8.505   2.348   3.629
  210LIG    HB2 3144   8.633   2.445   3.547
  210LIG     CG 3145   8.448   2.544   3.562
  210LIG    OD1 3146   8.377   2.502   3.467
  210LIG    OD2 3147   8.441   2.663   3.602
  210LIG      C 3148   8.496   2.478   3.872
  210LIG    OT1 3149   8.521   2.399   3.967
  210LIG    OT2 3150   8.389   2.543   3.868
  211LIG      N 3151   6.696   1.267   9.692
  211LIG     H1 3152   6.709   1.164   9.697
  211LIG     H2 3153   6.687   1.308   9.787
  211LIG     H3 3154   6.609   1.285   9.639
  211LIG     CA 3155   6.812   1.338   9.631
  211LIG     HA 3156   6.895   1.269   9.629
  211LIG     CB 3157   6.767   1.381   9.489
  211LIG    HB1 3158   6.712   1.477   9.493
  211LIG    HB2 3159   6.700   1.304   9.444
  211LIG     CG 3160   6.883   1.392   9.392
  211LIG    OD1 3161   6.867   1.467   9.292
  211LIG    OD2 3162   6.981   1.315   9.403
  211LIG      C 3163   6.851   1.458   9.725
  211LIG    OT1 3164   6.782   1.477   9.829
  211LIG    OT2 3165   6.950   1.530   9.696
  212LIG      N 3166   7.474   0.702   8.449
  212LIG     H1 3167   7.421   0.791   8.452
  212LIG     H2 3168   7.576   0.721   8.448
  212LIG     H3 3169   7.449   0.649   8.363
  212LIG     CA 3170   7.437   0.607   8.558
  212LIG     HA 3171   7.522   0.597   8.623
  212LIG     CB 3172   7.306   0.659   8.628
  212LIG    HB1 3173   7.229   0.579   8.630
  212LIG    HB2 3174   7.261   0.745   8.575
  212LIG     CG 3175   7.331   0.700   8.771
  212LIG    OD1 3176   7.234   0.745   8.837
  212LIG    OD2 3177   7.447   0.693   8.819
  212LIG      C 3178   7.413   0.466   8.495
  212LIG    OT1 3179   7.400   0.456   8.370
  212LIG    OT2 3180   7.409   0.367   8.572
  213LIG      N 3181   0.379   0.567   2.042
  213LIG     H1 3182   0.397   0.467   2.021
  213LIG     H2 3183   0.459   0.610   2.091
  213LIG     H3 3184   0.295   0.572   2.103
  213LIG     CA 3185   0.347   0.645   1.918
  213LIG     HA 3186   0.440   0.662   1.865
  213LIG     CB 3187   0.251   0.555   1.836
  213LIG    HB1 3188   0.149   0.555   1.878
  213LIG    HB2 3189   0.289   0.450   1.833
  213LIG     CG 3190   0.248   0.597   1.691
  213LIG    OD1 3191   0.135   0.607   1.635
  213LIG    OD2 3192   0.356   0.609   1.629
  213LIG      C 3193   0.284   0.785   1.951
  213LIG    OT1 3194   0.259   0.816   2.070
  213LIG    OT2 3195   0.257   0.864   1.857
  214LIG      N 3196   7.507   0.450   1.770
  214LIG     H1 3197   7.596   0.417   1.812
  214LIG     H2 3198   7.484   0.388   1.690
  214LIG     H3 3199   7.518   0.547   1.734
  214LIG     CA 3200   7.398   0.437   1.871
  214LIG     HA 3201   7.416   0.343   1.920
  214LIG     CB 3202   7.411   0.556   1.970
  214LIG    HB1 3203   7.364   0.648   1.930
  214LIG    HB2 3204   7.517   0.578   1.993
  214LIG     CG 3205   7.347   0.521   2.104
  214LIG    OD1 3206   7.300   0.614   2.173
  214LIG    OD2 3207   7.355   0.402   2.146
  214LIG      C 3208   7.258   0.428   1.805
  214LIG    OT1 3209   7.245   0.436   1.679
  214LIG    OT2 3210   7.157   0.406   1.877
  215LIG      N 3211   2.549   1.101   8.624
  215LIG     H1 3212   2.572   1.120   8.723
  215LIG     H2 3213   2.555   1.189   8.568
  215LIG     H3 3214   2.450   1.070   8.613
  215LIG     CA 3215   2.650   1.014   8.560
  215LIG     HA 3216   2.728   1.000   8.633
  215LIG     CB 3217   2.580   0.880   8.520
  215LIG    HB1 3218   2.546   0.883   8.415
  215LIG    HB2 3219   2.491   0.860   8.585
  215LIG     CG 3220   2.671   0.761   8.540
  215LIG    OD1 3221   2.625   0.648   8.506
  215LIG    OD2 3222   2.784   0.774   8.593
  215LIG      C 3223   2.711   1.094   8.440
  215LIG    OT1 3224   2.662   1.207   8.410
  215LIG    OT2 3225   2.811   1.049   8.379
  216LIG      N 3226   3.636   9.875   1.503
  216LIG     H1 3227   3.728   9.878   1.552
  216LIG     H2 3228   3.580   9.959   1.531
  216LIG     H3 3229   3.582   9.791   1.532
  216LIG     CA 3230   3.647   9.871   1.355
  216LIG     HA 3231   3.630   9.972   1.321
  216LIG     CB 3232   3.789   9.819   1.316
  216LIG    HB1 3233   3.786   9.709   1.296
  216LIG    HB2 3234   3.863   9.837   1.396
  216LIG     CG 3235   3.844   9.888   1.193
  216LIG    OD1 3236   3.946   9.838   1.137
  216LIG    OD2 3237   3.800   0.001   1.161
  216LIG      C 3238   3.533   9.783   1.296
  216LIG    OT1 3239   3.454   9.723   1.375
  216LIG    OT2 3240   3.520   9.773   1.172
  217LIG      N 3241   9.435   6.716   4.693
  217LIG     H1 3242   9.445   6.789   4.620
  217LIG     H2 3243   9.340   6.673   4.689
  217LIG     H3 3244   9.442   6.760   4.787
  217LIG     CA 3245   9.538   6.608   4.679
  217LIG     HA 3246   9.541   6.577   4.576
  217LIG     CB 3247   9.675   6.669   4.722
  217LIG    HB1 3248   9.677   6.688   4.832
  217LIG    HB2 3249   9.692   6.765   4.669
  217LIG     CG 3250   9.791   6.580   4.685
  217LIG    OD1 3251   9.886   6.570   4.767
  217LIG    OD2 3252   9.794   6.523   4.573
  217LIG      C 3253   9.499   6.482   4.763
  217LIG    OT1 3254   9.392   6.482   4.831
  217LIG    OT2 3255   9.572   6.380   4.760
  218LIG      N 3256   1.061   7.619   8.601
  218LIG     H1 3257   1.055   7.571   8.693
  218LIG     H2 3258   0.995   7.699   8.598
  218LIG     H3 3259   1.038   7.552   8.524
  218LIG     CA 3260   1.200   7.670   8.582
  218LIG     HA 3261   1.219   7.743   8.660
  218LIG     CB 3262   1.301   7.554   8.591
  218LIG    HB1 3263   1.401   7.592   8.562
  218LIG    HB2 3264   1.273   7.470   8.523
  218LIG     CG 3265   1.320   7.501   8.731
  218LIG    OD1 3266   1.425   7.435   8.752
  218LIG    OD2 3267   1.232   7.520   8.818
  218LIG      C 3268   1.223   7.743   8.447
  218LIG    OT1 3269   1.128   7.758   8.366
  218LIG    OT2 3270   1.339   7.786   8.422
  219LIG      N 3271   2.561   9.839   4.082
  219LIG     H1 3272   2.536   9.901   4.002
  219LIG     H2 3273   2.476   9.789   4.115
  219LIG     H3 3274   2.600   9.892   4.162
  219LIG     CA 3275   2.663   9.743   4.032
  219LIG     HA 3276   2.633   9.711   3.934
  219LIG     CB 3277   2.796   9.823   4.032
  219LIG    HB1 3278   2.836   9.836   4.135
  219LIG    HB2 3279   2.781   9.924   3.988
  219LIG     CG 3280   2.902   9.758   3.945
  219LIG    OD1 3281   3.021   9.767   3.984
  219LIG    OD2 3282   2.868   9.716   3.832
  219LIG      C 3283   2.672   9.619   4.126
  219LIG    OT1 3284   2.645   9.632   4.248
  219LIG    OT2 3285   2.699   9.508   4.075
  220LIG      N 3286   0.951   8.412   7.480
  220LIG     H1 3287   0.932   8.393   7.580
  220LIG     H2 3288   1.048   8.379   7.460
  220LIG     H3 3289   0.946   8.513   7.458
  220LIG     CA 3290   0.860   8.339   7.387
  220LIG     HA 3291   0.885   8.235   7.396
  220LIG     CB 3292   0.713   8.369   7.429
  220LIG    HB1 3293   0.677   8.464   7.385
  220LIG    HB2 3294   0.704   8.375   7.539
  220LIG     CG 3295   0.624   8.254   7.386
  220LIG    OD1 3296   0.516   8.278   7.328
  220LIG    OD2 3297   0.659   8.137   7.416
  220LIG      C 3298   0.889   8.383   7.240
  220LIG    OT1 3299   0.966   8.481   7.219
  220LIG    OT2 3300   0.834   8.319   7.147
  221LIG      N 3301   4.484   0.811   7.200
  221LIG     H1 3302   4.502   0.709   7.201
  221LIG     H2 3303   4.524   0.852   7.287
  221LIG     H3 3304   4.381   0.824   7.199
  221LIG     CA 3305   4.541   0.877   7.079
  221LIG     HA 3306   4.645   0.849   7.077
  221LIG     CB 3307   4.464   0.825   6.954
  221LIG    HB1 3308   4.391   0.901   6.920
  221LIG    HB2 3309   4.408   0.731   6.975
  221LIG     CG 3310   4.558   0.791   6.841
  221LIG    OD1 3311   4.516   0.800   6.723
  221LIG    OD2 3312   4.668   0.737   6.869
  221LIG      C 3313   4.540   1.033   7.089
  221LIG    OT1 3314   4.511   1.088   7.199
  221LIG    OT2 3315   4.572   1.101   6.988
  222LIG      N 3316   8.024   4.033   5.660
  222LIG     H1 3317   8.010   3.930   5.662
  222LIG     H2 3318   8.122   4.050   5.690
  222LIG     H3 3319   7.963   4.080   5.730
  222LIG     CA 3320   7.986   4.088   5.527
  222LIG     HA 3321   8.068   4.073   5.459
  222LIG     CB 3322   7.861   4.002   5.485
  222LIG    HB1 3323   7.778   4.019   5.558
  222LIG    HB2 3324   7.887   3.894   5.487
  222LIG     CG 3325   7.802   4.028   5.347
  222LIG    OD1 3326   7.790   4.145   5.304
  222LIG    OD2 3327   7.747   3.931   5.288
  222LIG      C 3328   7.961   4.241   5.543
  222LIG    OT1 3329   7.932   4.288   5.656
  222LIG    OT2 3330   7.976   4.313   5.441
  223LIG      N 3331   3.830   9.029   5.213
  223LIG     H1 3332   3.858   9.105   5.147
  223LIG     H2 3333   3.842   8.937   5.166
  223LIG     H3 3334   3.730   9.040   5.240
  223LIG     CA 3335   3.910   9.035   5.338
  223LIG     HA 3336   4.015   9.033   5.311
  223LIG     CB 3337   3.876   9.168   5.413
  223LIG    HB1 3338   3.914   9.165   5.517
  223LIG    HB2 3339   3.766   9.186   5.416
  223LIG     CG 3340   3.944   9.285   5.346
  223LIG    OD1 3341   3.911   9.401   5.377
  223LIG    OD2 3342   4.040   9.260   5.267
  223LIG      C 3343   3.892   8.911   5.430
  223LIG    OT1 3344   3.825   8.811   5.391
  223LIG    OT2 3345   3.949   8.911   5.542
  224LIG      N 3346   4.807   1.260   8.522
  224LIG     H1 3347   4.828   1.300   8.616
  224LIG     H2 3348   4.704   1.251   8.512
  224LIG     H3 3349   4.850   1.165   8.514
  224LIG     CA 3350   4.859   1.346   8.411
  224LIG     HA 3351   4.826   1.447   8.434
  224LIG     CB 3352   5.013   1.336   8.415
  224LIG    HB1 3353   5.047   1.242   8.366
  224LIG    HB2 3354   5.052   1.338   8.519
  224LIG     CG 3355   5.078   1.454   8.346
  224LIG    OD1 3356   5.200   1.445   8.318
  224LIG    OD2 3357   5.013   1.560   8.328
  224LIG      C 3358   4.794   1.308   8.274
  224LIG    OT1 3359   4.695   1.230   8.274
  224LIG    OT2 3360   4.835   1.360   8.168
  225LIG      N 3361   1.064   4.168   9.764
  225LIG     H1 3362   1.160   4.164   9.725
  225LIG     H2 3363   0.995   4.144   9.689
  225LIG     H3 3364   1.041   4.263   9.798
  225LIG     CA 3365   1.040   4.072   9.876
  225LIG     HA 3366   1.085   3.979   9.847
  225LIG     CB 3367   1.101   4.135   0.006
  225LIG    HB1 3368   1.020   4.164   0.076
  225LIG    HB2 3369   1.161   4.226   9.985
  225LIG     CG 3370   1.194   4.040   0.079
  225LIG    OD1 3371   1.235   4.076   0.193
  225LIG    OD2 3372   1.236   3.937   0.022
  225LIG      C 3373   0.886   4.047   9.888
  225LIG    OT1 3374   0.806   4.117   9.821
  225LIG    OT2 3375   0.847   3.953   9.962
  226LIG      N 3376   9.069   5.409   1.447
  226LIG     H1 3377   9.173   5.406   1.447
  226LIG     H2 3378   9.032   5.330   1.389
  226LIG     H3 3379   9.034   5.497   1.404
  226LIG     CA 3380   9.007   5.395   1.582
  226LIG     HA 3381   9.033   5.298   1.621
  226LIG     CB 3382   9.066   5.510   1.669
  226LIG    HB1 3383   9.027   5.609   1.637
  226LIG    HB2 3384   9.177   5.511   1.662
  226LIG     CG 3385   9.035   5.488   1.815
  226LIG    OD1 3386   8.986   5.584   1.880
  226LIG    OD2 3387   9.068   5.379   1.869
  226LIG      C 3388   8.851   5.404   1.573
  226LIG    OT1 3389   8.796   5.443   1.466
  226LIG    OT2 3390   8.782   5.368   1.671
  227LIG      N 3391   1.496   1.817   6.981
  227LIG     H1 3392   1.453   1.829   6.887
  227LIG     H2 3393   1.574   1.884   6.995
  227LIG     H3 3394   1.540   1.722   6.980
  227LIG     CA 3395   1.399   1.833   7.092
  227LIG     HA 3396   1.350   1.928   7.075
  227LIG     CB 3397   1.298   1.714   7.085
  227LIG    HB1 3398   1.316   1.641   7.167
  227LIG    HB2 3399   1.302   1.659   6.989
  227LIG     CG 3400   1.157   1.768   7.096
  227LIG    OD1 3401   1.089   1.745   7.199
  227LIG    OD2 3402   1.115   1.839   7.000
  227LIG      C 3403   1.473   1.844   7.229
  227LIG    OT1 3404   1.595   1.815   7.238
  227LIG    OT2 3405   1.408   1.888   7.328
  228LIG      N 3406   0.760   2.772   9.925
  228LIG     H1 3407   0.704   2.799   0.008
  228LIG     H2 3408   0.704   2.780   9.837
  228LIG     H3 3409   0.794   2.674   9.933
  228LIG     CA 3410   0.876   2.863   9.905
  228LIG     HA 3411   0.845   2.959   9.944
  228LIG     CB 3412   0.997   2.803   9.982
  228LIG    HB1 3413   1.059   2.741   9.915
  228LIG    HB2 3414   0.966   2.741   0.069
  228LIG     CG 3415   1.084   2.913   0.041
  228LIG    OD1 3416   1.200   2.880   0.079
  228LIG    OD2 3417   1.035   3.027   0.059
  228LIG      C 3418   0.900   2.882   9.752
  228LIG    OT1 3419   0.815   2.835   9.671
  228LIG    OT2 3420   0.999   2.947   9.712
  229LIG      N 3421   9.962   6.414   0.171
  229LIG     H1 3422   9.861   6.411   0.194
  229LIG     H2 3423   9.973   6.393   0.069
  229LIG     H3 3424   0.016   6.345   0.226
  229LIG     CA 3425   0.017   6.550   0.196
  229LIG     HA 3426   9.988   6.609   0.110
  229LIG     CB 3427   9.959   6.611   0.327
  229LIG    HB1 3428   0.037   6.664   0.386
  229LIG    HB2 3429   9.911   6.536   0.393
  229LIG     CG 3430   9.856   6.713   0.283
  229LIG    OD1 3431   9.884   6.835   0.291
  229LIG    OD2 3432   9.753   6.669   0.227
  229LIG      C 3433   0.171   6.552   0.189
  229LIG    OT1 3434   0.228   6.453   0.137
  229LIG    OT2 3435   0.235   6.652   0.230
  230LIG      N 3436   5.394   1.570   6.233
  230LIG     H1 3437   5.394   1.466   6.243
  230LIG     H2 3438   5.482   1.596   6.184
  230LIG     H3 3439   5.402   1.613   6.327
  230LIG     CA 3440   5.270   1.616   6.166
  230LIG     HA 3441   5.259   1.555   6.078
  230LIG     CB 3442   5.153   1.595   6.268
  230LIG    HB1 3443   5.130   1.688   6.325
  230LIG    HB2 3444   5.177   1.515   6.342
  230LIG     CG 3445   5.030   1.547   6.196
  230LIG    OD1 3446   4.916   1.587   6.233
  230LIG    OD2 3447   5.043   1.458   6.108
  230LIG      C 3448   5.277   1.764   6.116
  230LIG    OT1 3449   5.384   1.829   6.126
  230LIG    OT2 3450   5.174   1.814   6.064
  231LIG      N 3451   2.213   8.107   1.331
  231LIG     H1 3452   2.237   8.094   1.231
  231LIG     H2 3453   2.268   8.041   1.389
  231LIG     H3 3454   2.112   8.083   1.345
  231LIG     CA 3455   2.235   8.246   1.380
  231LIG     HA 3456   2.339   8.250   1.408
  231LIG     CB 3457   2.205   8.347   1.266
  231LIG    HB1 3458   2.112   8.406   1.285
  231LIG    HB2 3459   2.195   8.298   1.166
  231LIG     CG 3460   2.324   8.439   1.256
  231LIG    OD1 3461   2.309   8.563   1.275
  231LIG    OD2 3462   2.435   8.385   1.231
  231LIG      C 3463   2.157   8.276   1.512
  231LIG    OT1 3464   2.096   8.182   1.569
  231LIG    OT2 3465   2.160   8.391   1.564
  232LIG      N 3466   0.379   3.580   8.028
  232LIG     H1 3467   0.453   3.532   7.972
  232LIG     H2 3468   0.393   3.553   8.128
  232LIG     H3 3469   0.287   3.541   8.000
  232LIG     CA 3470   0.384   3.728   8.008
  232LIG     HA 3471   0.454   3.766   8.080
  232LIG     CB 3472   0.433   3.753   7.862
  232LIG    HB1 3473   0.348   3.746   7.791
  232LIG    HB2 3474   0.510   3.679   7.832
  232LIG     CG 3475   0.499   3.888   7.850
  232LIG    OD1 3476   0.488   3.951   7.741
  232LIG    OD2 3477   0.573   3.926   7.943
  232LIG      C 3478   0.247   3.799   8.030
  232LIG    OT1 3479   0.145   3.731   8.057
  232LIG    OT2 3480   0.240   3.924   8.017
  233LIG      N 3481   8.295   0.082   3.891
  233LIG     H1 3482   8.398   0.079   3.906
  233LIG     H2 3483   8.254   0.152   3.957
  233LIG     H3 3484   8.255   9.989   3.912
  233LIG     CA 3485   8.263   0.121   3.751
  233LIG     HA 3486   8.311   0.217   3.733
  233LIG     CB 3487   8.321   0.010   3.658
  233LIG    HB1 3488   8.247   9.931   3.637
  233LIG    HB2 3489   8.411   9.962   3.704
  233LIG     CG 3490   8.371   0.071   3.529
  233LIG    OD1 3491   8.341   0.016   3.420
  233LIG    OD2 3492   8.448   0.170   3.537
  233LIG      C 3493   8.111   0.144   3.725
  233LIG    OT1 3494   8.027   0.117   3.816
  233LIG    OT2 3495   8.073   0.188   3.614
  234LIG      N 3496   4.774   7.753   0.019
  234LIG     H1 3497   4.849   7.745   9.947
  234LIG     H2 3498   4.713   7.669   0.022
  234LIG     H3 3499   4.715   7.833   9.990
  234LIG     CA 3500   4.828   7.783   0.154
  234LIG     HA 3501   4.884   7.696   0.185
  234LIG     CB 3502   4.920   7.906   0.141
  234LIG    HB1 3503   4.860   7.999   0.134
  234LIG    HB2 3504   4.984   7.899   0.050
  234LIG     CG 3505   5.014   7.917   0.258
  234LIG    OD1 3506   5.060   8.030   0.287
  234LIG    OD2 3507   5.055   7.812   0.314
  234LIG      C 3508   4.712   7.802   0.257
  234LIG    OT1 3509   4.594   7.772   0.224
  234LIG    OT2 3510   4.739   7.845   0.373
  235LIG      N 3511   5.489   9.786   7.226
  235LIG     H1 3512   5.420   9.733   7.282
  235LIG     H2 3513   5.469   9.776   7.124
  235LIG     H3 3514   5.585   9.749   7.242
  235LIG     CA 3515   5.493   9.931   7.258
  235LIG     HA 3516   5.403   9.974   7.215
  235LIG     CB 3517   5.500   9.948   7.413
  235LIG    HB1 3518   5.598   9.989   7.445
  235LIG    HB2 3519   5.483   9.853   7.467
  235LIG     CG 3520   5.390   0.042   7.455
  235LIG    OD1 3521   5.419   0.146   7.520
  235LIG    OD2 3522   5.272   0.013   7.424
  235LIG      C 3523   5.613   0.002   7.188
  235LIG    OT1 3524   5.698   9.933   7.124
  235LIG    OT2 3525   5.621   0.127   7.197
  236LIG      N 3526   0.631   0.320   3.388
  236LIG     H1 3527   0.650   0.223   3.422
  236LIG     H2 3528   0.686   0.334   3.301
  236LIG     H3 3529   0.665   0.387   3.460
  236LIG     CA 3530   0.487   0.348   3.363
  236LIG     HA 3531   0.453   0.276   3.290
  236LIG     CB 3532   0.414   0.329   3.499
  236LIG    HB1 3533   0.434   0.415   3.567
  236LIG    HB2 3534   0.446   0.236   3.550
  236LIG     CG 3535   0.264   0.316   3.479
  236LIG    OD1 3536   0.189   0.360   3.571
  236LIG    OD2 3537   0.222   0.252   3.380
  236LIG      C 3538   0.467   0.492   3.306
  236LIG    OT1 3539   0.563   0.574   3.309
  236LIG    OT2 3540   0.355   0.524   3.257
  237LIG      N 3541   4.330   1.611   2.833
  237LIG     H1 3542   4.417   1.555   2.841
  237LIG     H2 3543   4.260   1.574   2.901
  237LIG     H3 3544   4.292   1.595   2.737
  237LIG     CA 3545   4.356   1.755   2.859
  237LIG     HA 3546   4.397   1.760   2.959
  237LIG     CB 3547   4.458   1.805   2.754
  237LIG    HB1 3548   4.406   1.839   2.662
  237LIG    HB2 3549   4.530   1.725   2.726
  237LIG     CG 3550   4.543   1.919   2.808
  237LIG    OD1 3551   4.600   1.993   2.724
  237LIG    OD2 3552   4.567   1.926   2.931
  237LIG      C 3553   4.227   1.842   2.859
  237LIG    OT1 3554   4.116   1.789   2.834
  237LIG    OT2 3555   4.236   1.964   2.886
  238LIG      N 3556   2.247   1.465   1.628
  238LIG     H1 3557   2.147   1.478   1.653
  238LIG     H2 3558   2.271   1.527   1.548
  238LIG     H3 3559   2.261   1.366   1.599
  238LIG     CA 3560   2.336   1.494   1.744
  238LIG     HA 3561   2.309   1.593   1.779
  238LIG     CB 3562   2.306   1.385   1.850
  238LIG    HB1 3563   2.363   1.292   1.829
  238LIG    HB2 3564   2.198   1.359   1.853
  238LIG     CG 3565   2.340   1.434   1.988
  238LIG    OD1 3566   2.346   1.348   2.080
  238LIG    OD2 3567   2.347   1.557   2.011
  238LIG      C 3568   2.486   1.498   1.701
  238LIG    OT1 3569   2.514   1.478   1.580
  238LIG    OT2 3570   2.577   1.524   1.785
  239LIG      N 3571   5.361   9.308   4.931
  239LIG     H1 3572   5.459   9.290   4.963
  239LIG     H2 3573   5.366   9.367   4.845
  239LIG     H3 3574   5.315   9.364   5.005
  239LIG     CA 3575   5.283   9.184   4.904
  239LIG     HA 3576   5.340   9.126   4.834
  239LIG     CB 3577   5.266   9.110   5.041
  239LIG    HB1 3578   5.183   9.154   5.100
  239LIG    HB2 3579   5.360   9.118   5.100
  239LIG     CG 3580   5.243   8.961   5.024
  239LIG    OD1 3581   5.172   8.901   5.109
  239LIG    OD2 3582   5.307   8.901   4.933
  239LIG      C 3583   5.146   9.217   4.836
  239LIG    OT1 3584   5.110   9.337   4.820
  239LIG    OT2 3585   5.074   9.122   4.795
  240LIG      N 3586   1.257   3.277   6.820
  240LIG     H1 3587   1.317   3.220   6.883
  240LIG     H2 3588   1.177   3.218   6.789
  240LIG     H3 3589   1.310   3.301   6.734
  240LIG     CA 3590   1.210   3.401   6.887
  240LIG     HA 3591   1.147   3.373   6.970
  240LIG     CB 3592   1.341   3.472   6.933
  240LIG    HB1 3593   1.393   3.517   6.846
  240LIG    HB2 3594   1.410   3.399   6.981
  240LIG     CG 3595   1.318   3.580   7.036
  240LIG    OD1 3596   1.202   3.601   7.078
  240LIG    OD2 3597   1.419   3.641   7.079
  240LIG      C 3598   1.128   3.487   6.787
  240LIG    OT1 3599   1.160   3.488   6.666
  240LIG    OT2 3600   1.027   3.549   6.828
  241LIG      N 3601   0.727   9.838   5.104
  241LIG     H1 3602   0.809   9.887   5.064
  241LIG     H2 3603   0.728   9.849   5.208
  241LIG     H3 3604   0.730   9.736   5.087
  241LIG     CA 3605   0.600   9.894   5.050
  241LIG     HA 3606   0.593   9.996   5.082
  241LIG     CB 3607   0.610   9.882   4.895
  241LIG    HB1 3608   0.586   9.779   4.861
  241LIG    HB2 3609   0.711   9.909   4.859
  241LIG     CG 3610   0.516   9.979   4.826
  241LIG    OD1 3611   0.473   9.950   4.711
  241LIG    OD2 3612   0.495   0.090   4.880
  241LIG      C 3613   0.476   9.817   5.106
  241LIG    OT1 3614   0.493   9.703   5.158
  241LIG    OT2 3615   0.363   9.873   5.103
  242LIG      N 3616   8.182   9.135   6.278
  242LIG     H1 3617   8.202   9.203   6.202
  242LIG     H2 3618   8.147   9.186   6.362
  242LIG     H3 3619   8.270   9.086   6.305
  242LIG     CA 3620   8.075   9.035   6.245
  242LIG     HA 3621   8.022   9.070   6.158
  242LIG     CB 3622   8.148   8.900   6.218
  242LIG    HB1 3623   8.193   8.862   6.312
  242LIG    HB2 3624   8.229   8.914   6.143
  242LIG     CG 3625   8.057   8.792   6.163
  242LIG    OD1 3626   8.095   8.673   6.177
  242LIG    OD2 3627   7.955   8.822   6.097
  242LIG      C 3628   7.973   9.028   6.363
  242LIG    OT1 3629   7.995   9.098   6.466
  242LIG    OT2 3630   7.872   8.955   6.354
  243LIG      N 3631   5.601   8.437   7.419
  243LIG     H1 3632   5.519   8.482   7.464
  243LIG     H2 3633   5.687   8.484   7.451
  243LIG     H3 3634   5.598   8.451   7.316
  243LIG     CA 3635   5.604   8.290   7.447
  243LIG     HA 3636   5.615   8.277   7.554
  243LIG     CB 3637   5.467   8.235   7.397
  243LIG    HB1 3638   5.451   8.260   7.290
  243LIG    HB2 3639   5.385   8.283   7.455
  243LIG     CG 3640   5.449   8.085   7.413
  243LIG    OD1 3641   5.466   8.013   7.310
  243LIG    OD2 3642   5.416   8.038   7.524
  243LIG      C 3643   5.727   8.221   7.380
  243LIG    OT1 3644   5.789   8.281   7.289
  243LIG    OT2 3645   5.761   8.106   7.416
  244LIG      N 3646   0.123   0.404   5.466
  244LIG     H1 3647   0.040   0.363   5.419
  244LIG     H2 3648   0.111   0.507   5.478
  244LIG     H3 3649   0.205   0.389   5.403
  244LIG     CA 3650   0.151   0.342   5.598
  244LIG     HA 3651   0.065   0.360   5.660
  244LIG     CB 3652   0.173   0.190   5.572
  244LIG    HB1 3653   0.277   0.171   5.538
  244LIG    HB2 3654   0.103   0.152   5.495
  244LIG     CG 3655   0.146   0.106   5.695
  244LIG    OD1 3656   0.188   9.988   5.695
  244LIG    OD2 3657   0.071   0.151   5.786
  244LIG      C 3658   0.275   0.409   5.666
  244LIG    OT1 3659   0.341   0.495   5.602
  244LIG    OT2 3660   0.301   0.381   5.786
  245LIG      N 3661   1.158   5.743   7.302
  245LIG     H1 3662   1.097   5.821   7.334
  245LIG     H2 3663   1.161   5.736   7.199
  245LIG     H3 3664   1.125   5.652   7.339
  245LIG     CA 3665   1.300   5.763   7.347
  245LIG     HA 3666   1.317   5.870   7.340
  245LIG     CB 3667   1.312   5.714   7.494
  245LIG    HB1 3668   1.328   5.604   7.497
  245LIG    HB2 3669   1.221   5.738   7.553
  245LIG     CG 3670   1.426   5.782   7.567
  245LIG    OD1 3671   1.466   5.732   7.676
  245LIG    OD2 3672   1.471   5.890   7.521
  245LIG      C 3673   1.399   5.694   7.249
  245LIG    OT1 3674   1.353   5.648   7.141
  245LIG    OT2 3675   1.522   5.688   7.274
  246LIG      N 3676   9.917   2.148   0.284
  246LIG     H1 3677   9.860   2.150   0.371
  246LIG     H2 3678   9.904   2.238   0.234
  246LIG     H3 3679   9.883   2.070   0.225
  246LIG     CA 3680   0.061   2.121   0.313
  246LIG     HA 3681   0.109   2.216   0.330
  246LIG     CB 3682   0.066   2.031   0.440
  246LIG    HB1 3683   0.044   1.925   0.416
  246LIG    HB2 3684   9.993   2.066   0.516
  246LIG     CG 3685   0.201   2.042   0.507
  246LIG    OD1 3686   0.244   1.945   0.573
  246LIG    OD2 3687   0.259   2.154   0.506
  246LIG      C 3688   0.129   2.054   0.190
  246LIG    OT1 3689   0.063   2.033   0.084
  246LIG    OT2 3690   0.251   2.022   0.197
  247LIG      N 3691   8.245   9.461   0.634
  247LIG     H1 3692   8.300   9.450   0.546
  247LIG     H2 3693   8.280   9.397   0.708
  247LIG     H3 3694   8.144   9.443   0.615
  247LIG     CA 3695   8.265   9.598   0.689
  247LIG     HA 3696   8.357   9.636   0.646
  247LIG     CB 3697   8.142   9.682   0.648
  247LIG    HB1 3698   8.059   9.671   0.721
  247LIG    HB2 3699   8.105   9.652   0.548
  247LIG     CG 3700   8.181   9.827   0.634
  247LIG    OD1 3701   8.109   9.913   0.691
  247LIG    OD2 3702   8.273   9.857   0.554
  247LIG      C 3703   8.286   9.587   0.843
  247LIG    OT1 3704   8.273   9.475   0.899
  247LIG    OT2 3705   8.323   9.688   0.908
  248LIG      N 3706   8.246   8.237   2.922
  248LIG     H1 3707   8.233   8.192   2.829
  248LIG     H2 3708   8.156   8.234   2.974
  248LIG     H3 3709   8.276   8.336   2.911
  248LIG     CA 3710   8.344   8.155   2.998
  248LIG     HA 3711   8.387   8.086   2.928
  248LIG     CB 3712   8.452   8.248   3.061
  248LIG    HB1 3713   8.426   8.276   3.166
  248LIG    HB2 3714   8.465   8.341   3.003
  248LIG     CG 3715   8.586   8.179   3.058
  248LIG    OD1 3716   8.646   8.153   3.166
  248LIG    OD2 3717   8.636   8.153   2.946
  248LIG      C 3718   8.266   8.073   3.105
  248LIG    OT1 3719   8.142   8.091   3.120
  248LIG    OT2 3720   8.326   7.986   3.174
  249LIG      N 3721   6.772   1.751   0.648
  249LIG     H1 3722   6.708   1.788   0.721
  249LIG     H2 3723   6.724   1.676   0.594
  249LIG     H3 3724   6.858   1.711   0.691
  249LIG     CA 3725   6.812   1.860   0.554
  249LIG     HA 3726   6.722   1.912   0.526
  249LIG     CB 3727   6.913   1.950   0.632
  249LIG    HB1 3728   7.016   1.909   0.622
  249LIG    HB2 3729   6.888   1.955   0.740
  249LIG     CG 3730   6.914   2.093   0.585
  249LIG    OD1 3731   7.012   2.165   0.618
  249LIG    OD2 3732   6.812   2.142   0.529
  249LIG      C 3733   6.874   1.799   0.424
  249LIG    OT1 3734   6.908   1.678   0.422
  249LIG    OT2 3735   6.885   1.872   0.323
  250LIG      N 3736   0.908   7.013   9.362
  250LIG     H1 3737   0.861   6.975   9.447
  250LIG     H2 3738   0.854   6.985   9.277
  250LIG     H3 3739   1.004   6.975   9.355
  250LIG     CA 3740   0.916   7.162   9.369
  250LIG     HA 3741   0.816   7.199   9.353
  250LIG     CB 3742   0.971   7.198   9.510
  250LIG    HB1 3743   1.081   7.191   9.514
  250LIG    HB2 3744   0.928   7.130   9.586
  250LIG     CG 3745   0.926   7.337   9.550
  250LIG    OD1 3746   1.004   7.406   9.622
  250LIG    OD2 3747   0.807   7.370   9.526
  250LIG      C 3748   1.008   7.219   9.256
  250LIG    OT1 3749   1.079   7.139   9.189
  250LIG    OT2 3750   1.008   7.343   9.235
  251LIG      N 3751   9.618   1.023   3.167
  251LIG     H1 3752   9.721   1.004   3.166
  251LIG     H2 3753   9.582   1.024   3.264
  251LIG     H3 3754   9.569   0.949   3.114
  251LIG     CA 3755   9.584   1.156   3.105
  251LIG     HA 3756   9.659   1.226   3.138
  251LIG     CB 3757   9.587   1.138   2.950
  251LIG    HB1 3758   9.495   1.088   2.914
  251LIG    HB2 3759   9.674   1.077   2.918
  251LIG     CG 3760   9.602   1.272   2.879
  251LIG    OD1 3761   9.563   1.280   2.760
  251LIG    OD2 3762   9.664   1.365   2.936
  251LIG      C 3763   9.445   1.208   3.154
  251LIG    OT1 3764   9.376   1.136   3.231
  251LIG    OT2 3765   9.407   1.323   3.121
  252LIG      N 3766   3.189   7.892   0.796
  252LIG     H1 3767   3.174   7.993   0.817
  252LIG     H2 3768   3.191   7.878   0.693
  252LIG     H3 3769   3.110   7.836   0.833
  252LIG     CA 3770   3.317   7.836   0.848
  252LIG     HA 3771   3.392   7.914   0.836
  252LIG     CB 3772   3.298   7.798   0.998
  252LIG    HB1 3773   3.237   7.705   1.007
  252LIG    HB2 3774   3.246   7.880   1.051
  252LIG     CG 3775   3.431   7.781   1.068
  252LIG    OD1 3776   3.444   7.695   1.159
  252LIG    OD2 3777   3.523   7.862   1.040
  252LIG      C 3778   3.362   7.716   0.759
  252LIG    OT1 3779   3.297   7.690   0.654
  252LIG    OT2 3780   3.463   7.648   0.790
  253LIG      N 3781   2.470   9.400   1.541
  253LIG     H1 3782   2.438   9.499   1.537
  253LIG     H2 3783   2.537   9.378   1.465
  253LIG     H3 3784   2.386   9.339   1.530
  253LIG     CA 3785   2.531   9.365   1.672
  253LIG     HA 3786   2.621   9.425   1.681
  253LIG     CB 3787   2.428   9.397   1.785
  253LIG    HB1 3788   2.387   9.304   1.830
  253LIG    HB2 3789   2.341   9.456   1.747
  253LIG     CG 3790   2.489   9.482   1.895
  253LIG    OD1 3791   2.437   9.477   2.009
  253LIG    OD2 3792   2.580   9.564   1.865
  253LIG      C 3793   2.578   9.216   1.675
  253LIG    OT1 3794   2.570   9.146   1.570
  253LIG    OT2 3795   2.623   9.168   1.782
  254LIG      N 3796   2.909   8.744   7.745
  254LIG     H1 3797   2.826   8.754   7.683
  254LIG     H2 3798   2.918   8.643   7.771
  254LIG     H3 3799   2.891   8.798   7.832
  254LIG     CA 3800   3.028   8.794   7.671
  254LIG     HA 3801   2.993   8.832   7.576
  254LIG     CB 3802   3.091   8.906   7.758
  254LIG    HB1 3803   3.146   8.864   7.844
  254LIG    HB2 3804   3.012   8.975   7.797
  254LIG     CG 3805   3.182   8.992   7.675
  254LIG    OD1 3806   3.304   9.000   7.705
  254LIG    OD2 3807   3.134   9.056   7.578
  254LIG      C 3808   3.130   8.680   7.643
  254LIG    OT1 3809   3.128   8.576   7.714
  254LIG    OT2 3810   3.212   8.694   7.548
  255LIG      N 3811   9.814   9.093   3.898
  255LIG     H1 3812   9.755   9.175   3.925
  255LIG     H2 3813   9.754   9.010   3.882
  255LIG     H3 3814   9.878   9.072   3.978
  255LIG     CA 3815   9.896   9.133   3.779
  255LIG     HA 3816   9.827   9.147   3.697
  255LIG     CB 3817   9.970   9.267   3.808
  255LIG    HB1 3818   0.036   9.292   3.722
  255LIG    HB2 3819   0.035   9.256   3.898
  255LIG     CG 3820   9.879   9.385   3.831
  255LIG    OD1 3821   9.922   9.500   3.802
  255LIG    OD2 3822   9.772   9.368   3.895
  255LIG      C 3823   9.999   9.026   3.733
  255LIG    OT1 3824   0.009   8.914   3.791
  255LIG    OT2 3825   0.072   9.053   3.634
  256LIG      N 3826   0.848   6.446   1.070
  256LIG     H1 3827   0.793   6.396   1.143
  256LIG     H2 3828   0.829   6.548   1.079
  256LIG     H3 3829   0.813   6.417   0.977
  256LIG     CA 3830   0.994   6.416   1.075
  256LIG     HA 3831   1.039   6.481   1.149
  256LIG     CB 3832   1.005   6.265   1.112
  256LIG    HB1 3833   0.973   6.201   1.027
  256LIG    HB2 3834   0.939   6.242   1.198
  256LIG     CG 3835   1.144   6.225   1.155
  256LIG    OD1 3836   1.188   6.112   1.121
  256LIG    OD2 3837   1.205   6.299   1.237
  256LIG      C 3838   1.059   6.444   0.937
  256LIG    OT1 3839   0.985   6.440   0.834
  256LIG    OT2 3840   1.181   6.470   0.928
  257LIG      N 3841   0.370   0.178   9.871
  257LIG     H1 3842   0.439   0.195   9.947
  257LIG     H2 3843   0.315   0.093   9.893
  257LIG     H3 3844   0.424   0.162   9.784
  257LIG     CA 3845   0.276   0.292   9.848
  257LIG     HA 3846   0.215   0.299   9.937
  257LIG     CB 3847   0.360   0.423   9.828
  257LIG    HB1 3848   0.391   0.435   9.723
  257LIG    HB2 3849   0.451   0.421   9.891
  257LIG     CG 3850   0.282   0.545   9.872
  257LIG    OD1 3851   0.302   0.655   9.814
  257LIG    OD2 3852   0.208   0.536   9.974
  257LIG      C 3853   0.179   0.265   9.729
  257LIG    OT1 3854   0.190   0.159   9.662
  257LIG    OT2 3855   0.090   0.350   9.700
  258LIG      N 3856   2.083   8.240   8.447
  258LIG     H1 3857   2.049   8.301   8.525
  258LIG     H2 3858   2.184   8.220   8.459
  258LIG     H3 3859   2.071   8.291   8.357
  258LIG     CA 3860   2.003   8.114   8.442
  258LIG     HA 3861   1.996   8.079   8.543
  258LIG     CB 3862   1.863   8.149   8.384
  258LIG    HB1 3863   1.862   8.143   8.273
  258LIG    HB2 3864   1.833   8.252   8.413
  258LIG     CG 3865   1.756   8.060   8.441
  258LIG    OD1 3866   1.670   8.013   8.362
  258LIG    OD2 3867   1.749   8.049   8.566
  258LIG      C 3868   2.076   8.004   8.359
  258LIG    OT1 3869   2.191   8.026   8.311
  258LIG    OT2 3870   2.020   7.893   8.344
  259LIG      N 3871   1.108   4.742   2.522
  259LIG     H1 3872   1.142   4.718   2.617
  259LIG     H2 3873   1.004   4.755   2.524
  259LIG     H3 3874   1.129   4.668   2.453
  259LIG     CA 3875   1.167   4.870   2.472
  259LIG     HA 3876   1.116   4.951   2.521
  259LIG     CB 3877   1.318   4.867   2.509
  259LIG    HB1 3878   1.374   4.795   2.444
  259LIG    HB2 3879   1.332   4.837   2.615
  259LIG     CG 3880   1.382   5.004   2.497
  259LIG    OD1 3881   1.493   5.014   2.439
  259LIG    OD2 3882   1.328   5.102   2.556
  259LIG      C 3883   1.145   4.882   2.318
  259LIG    OT1 3884   1.116   4.779   2.252
  259LIG    OT2 3885   1.154   4.995   2.264
  260LIG      N 3886   8.710   4.048   1.832
  260LIG     H1 3887   8.772   4.036   1.914
  260LIG     H2 3888   8.615   4.077   1.861
  260LIG     H3 3889   8.706   3.960   1.777
  260LIG     CA 3890   8.766   4.149   1.739
  260LIG     HA 3891   8.709   4.240   1.750
  260LIG     CB 3892   8.914   4.164   1.781
  260LIG    HB1 3893   8.976   4.077   1.749
  260LIG    HB2 3894   8.924   4.176   1.891
  260LIG     CG 3895   8.970   4.292   1.726
  260LIG    OD1 3896   9.094   4.295   1.699
  260LIG    OD2 3897   8.896   4.392   1.726
  260LIG      C 3898   8.752   4.096   1.593
  260LIG    OT1 3899   8.740   3.972   1.576
  260LIG    OT2 3900   8.748   4.177   1.497
  261LIG      N 3901   9.711   9.400   5.859
  261LIG     H1 3902   9.771   9.429   5.939
  261LIG     H2 3903   9.768   9.404   5.772
  261LIG     H3 3904   9.629   9.463   5.849
  261LIG     CA 3905   9.661   9.261   5.873
  261LIG     HA 3906   9.747   9.196   5.874
  261LIG     CB 3907   9.583   9.255   6.007
  261LIG    HB1 3908   9.487   9.309   6.001
  261LIG    HB2 3909   9.644   9.299   6.090
  261LIG     CG 3910   9.558   9.111   6.046
  261LIG    OD1 3911   9.447   9.083   6.099
  261LIG    OD2 3912   9.651   9.028   6.034
  261LIG      C 3913   9.571   9.220   5.751
  261LIG    OT1 3914   9.537   9.307   5.666
  261LIG    OT2 3915   9.534   9.100   5.740
  262LIG      N 3916   7.696   1.530   6.144
  262LIG     H1 3917   7.667   1.577   6.233
  262LIG     H2 3918   7.649   1.438   6.135
  262LIG     H3 3919   7.799   1.513   6.144
  262LIG     CA 3920   7.669   1.614   6.024
  262LIG     HA 3921   7.565   1.645   6.028
  262LIG     CB 3922   7.765   1.736   6.030
  262LIG    HB1 3923   7.865   1.708   5.992
  262LIG    HB2 3924   7.776   1.772   6.135
  262LIG     CG 3925   7.716   1.855   5.950
  262LIG    OD1 3926   7.797   1.950   5.933
  262LIG    OD2 3927   7.596   1.861   5.913
  262LIG      C 3928   7.687   1.531   5.893
  262LIG    OT1 3929   7.733   1.414   5.899
  262LIG    OT2 3930   7.655   1.583   5.783
  263LIG      N 3931   5.581   5.611   9.139
  263LIG     H1 3932   5.640   5.529   9.164
  263LIG     H2 3933   5.500   5.583   9.081
  263LIG     H3 3934   5.636   5.685   9.093
  263LIG     CA 3935   5.532   5.661   9.271
  263LIG     HA 3936   5.449   5.599   9.300
  263LIG     CB 3937   5.644   5.646   9.378
  263LIG    HB1 3938   5.610   5.689   9.475
  263LIG    HB2 3939   5.736   5.701   9.346
  263LIG     CG 3940   5.678   5.499   9.397
  263LIG    OD1 3941   5.682   5.450   9.513
  263LIG    OD2 3942   5.702   5.432   9.294
  263LIG      C 3943   5.473   5.805   9.259
  263LIG    OT1 3944   5.462   5.860   9.146
  263LIG    OT2 3945   5.429   5.860   9.362
  264LIG      N 3946   0.100   7.247   9.035
  264LIG     H1 3947   0.150   7.296   8.958
  264LIG     H2 3948   9.998   7.257   9.021
  264LIG     H3 3949   0.126   7.286   9.128
  264LIG     CA 3950   0.125   7.100   9.030
  264LIG     HA 3951   0.183   7.083   8.940
  264LIG     CB 3952   0.201   7.052   9.157
  264LIG    HB1 3953   0.136   6.990   9.223
  264LIG    HB2 3954   0.239   7.137   9.218
  264LIG     CG 3955   0.325   6.972   9.119
  264LIG    OD1 3956   0.359   6.876   9.192
  264LIG    OD2 3957   0.395   7.015   9.024
  264LIG      C 3958   9.992   7.023   9.006
  264LIG    OT1 3959   9.888   7.089   8.977
  264LIG    OT2 3960   9.989   6.897   9.010
  265LIG      N 3961   7.287   7.719   0.516
  265LIG     H1 3962   7.286   7.823   0.523
  265LIG     H2 3963   7.355   7.690   0.442
  265LIG     H3 3964   7.193   7.687   0.487
  265LIG     CA 3965   7.323   7.658   0.646
  265LIG     HA 3966   7.430   7.639   0.643
  265LIG     CB 3967   7.284   7.755   0.761
  265LIG    HB1 3968   7.223   7.706   0.840
  265LIG    HB2 3969   7.226   7.843   0.726
  265LIG     CG 3970   7.411   7.806   0.824
  265LIG    OD1 3971   7.428   7.792   0.948
  265LIG    OD2 3972   7.496   7.858   0.748
  265LIG      C 3973   7.256   7.520   0.673
  265LIG    OT1 3974   7.155   7.486   0.607
  265LIG    OT2 3975   7.307   7.448   0.763
  266LIG      N 3976   9.574   2.517   9.289
  266LIG     H1 3977   9.471   2.529   9.288
  266LIG     H2 3978   9.605   2.467   9.375
  266LIG     H3 3979   9.623   2.608   9.285
  266LIG     CA 3980   9.616   2.435   9.170
  266LIG     HA 3981   9.551   2.349   9.169
  266LIG     CB 3982   9.600   2.526   9.045
  266LIG    HB1 3983   9.696   2.574   9.017
  266LIG    HB2 3984   9.524   2.606   9.059
  266LIG     CG 3985   9.549   2.446   8.926
  266LIG    OD1 3986   9.570   2.492   8.811
  266LIG    OD2 3987   9.475   2.347   8.948
  266LIG      C 3988   9.763   2.382   9.183
  266LIG    OT1 3989   9.839   2.432   9.271
  266LIG    OT2 3990   9.800   2.287   9.111
  267LIG      N 3991   7.360   9.281   2.516
  267LIG     H1 3992   7.313   9.218   2.448
  267LIG     H2 3993   7.435   9.233   2.570
  267LIG     H3 3994   7.292   9.326   2.581
  267LIG     CA 3995   7.423   9.388   2.434
  267LIG     HA 3996   7.501   9.342   2.374
  267LIG     CB 3997   7.316   9.453   2.342
  267LIG    HB1 3998   7.362   9.539   2.288
  267LIG    HB2 3999   7.230   9.491   2.401
  267LIG     CG 4000   7.266   9.356   2.238
  267LIG    OD1 4001   7.192   9.398   2.146
  267LIG    OD2 4002   7.292   9.233   2.255
  267LIG      C 4003   7.493   9.494   2.522
  267LIG    OT1 4004   7.474   9.498   2.646
  267LIG    OT2 4005   7.575   9.571   2.465
  268LIG      N 4006   0.886   4.517   2.831
  268LIG     H1 4007   0.917   4.442   2.766
  268LIG     H2 4008   0.788   4.496   2.858
  268LIG     H3 4009   0.888   4.611   2.785
  268LIG     CA 4010   0.964   4.510   2.958
  268LIG     HA 4011   1.037   4.433   2.945
  268LIG     CB 4012   1.030   4.649   2.982
  268LIG    HB1 4013   0.958   4.718   3.031
  268LIG    HB2 4014   1.061   4.695   2.886
  268LIG     CG 4015   1.156   4.640   3.066
  268LIG    OD1 4016   1.204   4.747   3.110
  268LIG    OD2 4017   1.216   4.530   3.075
  268LIG      C 4018   0.868   4.465   3.072
  268LIG    OT1 4019   0.750   4.428   3.043
  268LIG    OT2 4020   0.907   4.463   3.192
  269LIG      N 4021   5.250   0.146   5.182
  269LIG     H1 4022   5.164   0.170   5.235
  269LIG     H2 4023   5.310   0.082   5.237
  269LIG     H3 4024   5.304   0.234   5.165
  269LIG     CA 4025   5.217   0.087   5.049
  269LIG     HA 4026   5.180   9.988   5.069
  269LIG     CB 4027   5.111   0.179   4.983
  269LIG    HB1 4028   5.154   0.240   4.901
  269LIG    HB2 4029   5.064   0.250   5.055
  269LIG     CG 4030   4.996   0.097   4.928
  269LIG    OD1 4031   4.923   0.151   4.842
  269LIG    OD2 4032   4.967   9.988   4.983
  269LIG      C 4033   5.344   0.070   4.959
  269LIG    OT1 4034   5.458   0.092   5.008
  269LIG    OT2 4035   5.329   0.035   4.839
  270LIG      N 4036   2.092   0.107   0.368
  270LIG     H1 4037   2.098   0.009   0.401
  270LIG     H2 4038   2.097   0.170   0.451
  270LIG     H3 4039   2.000   0.120   0.320
  270LIG     CA 4040   2.204   0.144   0.277
  270LIG     HA 4041   2.209   0.067   0.201
  270LIG     CB 4042   2.162   0.283   0.218
  270LIG    HB1 4043   2.196   0.365   0.285
  270LIG    HB2 4044   2.051   0.292   0.209
  270LIG     CG 4045   2.212   0.308   0.078
  270LIG    OD1 4046   2.196   0.424   0.031
  270LIG    OD2 4047   2.254   0.213   0.008
  270LIG      C 4048   2.341   0.145   0.352
  270LIG    OT1 4049   2.342   0.135   0.478
  270LIG    OT2 4050   2.448   0.151   0.286
  271LIG      N 4051   3.295   3.197   0.430
  271LIG     H1 4052   3.372   3.140   0.470
  271LIG     H2 4053   3.205   3.169   0.474
  271LIG     H3 4054   3.291   3.182   0.327
  271LIG     CA 4055   3.316   3.342   0.464
  271LIG     HA 4056   3.421   3.354   0.486
  271LIG     CB 4057   3.272   3.423   0.338
  271LIG    HB1 4058   3.162   3.438   0.339
  271LIG    HB2 4059   3.298   3.369   0.244
  271LIG     CG 4060   3.339   3.557   0.329
  271LIG    OD1 4061   3.289   3.643   0.251
  271LIG    OD2 4062   3.448   3.578   0.389
  271LIG      C 4063   3.232   3.380   0.590
  271LIG    OT1 4064   3.147   3.297   0.633
  271LIG    OT2 4065   3.249   3.492   0.646
  272LIG      N 4066   9.088   7.101   2.065
  272LIG     H1 4067   9.062   7.141   2.157
  272LIG     H2 4068   9.186   7.129   2.045
  272LIG     H3 4069   9.023   7.140   1.993
  272LIG     CA 4070   9.073   6.952   2.066
  272LIG     HA 4071   9.169   6.909   2.040
  272LIG     CB 4072   9.035   6.919   2.214
  272LIG    HB1 4073   8.934   6.959   2.238
  272LIG    HB2 4074   9.108   6.968   2.282
  272LIG     CG 4075   9.037   6.772   2.250
  272LIG    OD1 4076   8.938   6.700   2.223
  272LIG    OD2 4077   9.135   6.729   2.316
  272LIG      C 4078   8.970   6.907   1.958
  272LIG    OT1 4079   8.886   6.990   1.912
  272LIG    OT2 4080   8.974   6.789   1.914
  273LIG      N 4081   8.584   8.745   3.192
  273LIG     H1 4082   8.655   8.671   3.174
  273LIG     H2 4083   8.568   8.792   3.101
  273LIG     H3 4084   8.624   8.816   3.257
  273LIG     CA 4085   8.454   8.688   3.238
  273LIG     HA 4086   8.441   8.595   3.184
  273LIG     CB 4087   8.467   8.662   3.391
  273LIG    HB1 4088   8.485   8.757   3.445
  273LIG    HB2 4089   8.551   8.593   3.412
  273LIG     CG 4090   8.342   8.598   3.448
  273LIG    OD1 4091   8.267   8.667   3.521
  273LIG    OD2 4092   8.315   8.479   3.417
  273LIG      C 4093   8.333   8.781   3.202
  273LIG    OT1 4094   8.354   8.902   3.179
  273LIG    OT2 4095   8.217   8.732   3.195
  274LIG      N 4096   5.338   6.379   0.061
  274LIG     H1 4097   5.279   6.451   0.107
  274LIG     H2 4098   5.438   6.404   0.073
  274LIG     H3 4099   5.319   6.379   9.958
  274LIG     CA 4100   5.313   6.245   0.120
  274LIG     HA 4101   5.344   6.254   0.223
  274LIG     CB 4102   5.160   6.215   0.107
  274LIG    HB1 4103   5.139   6.159   0.014
  274LIG    HB2 4104   5.099   6.308   0.106
  274LIG     CG 4105   5.109   6.135   0.225
  274LIG    OD1 4106   5.000   6.074   0.212
  274LIG    OD2 4107   5.169   6.146   0.335
  274LIG      C 4108   5.400   6.135   0.055
  274LIG    OT1 4109   5.464   6.159   9.948
  274LIG    OT2 4110   5.411   6.024   0.114
  275LIG      N 4111   7.836   5.398   1.747
  275LIG     H1 4112   7.734   5.383   1.765
  275LIG     H2 4113   7.849   5.465   1.668
  275LIG     H3 4114   7.882   5.309   1.719
  275LIG     CA 4115   7.906   5.453   1.867
  275LIG     HA 4116   7.860   5.547   1.892
  275LIG     CB 4117   7.895   5.352   1.985
  275LIG    HB1 4118   7.977   5.368   2.058
  275LIG    HB2 4119   7.901   5.247   1.949
  275LIG     CG 4120   7.767   5.373   2.060
  275LIG    OD1 4121   7.759   5.329   2.178
  275LIG    OD2 4122   7.669   5.427   2.002
  275LIG      C 4123   8.055   5.485   1.842
  275LIG    OT1 4124   8.104   5.465   1.728
  275LIG    OT2 4125   8.122   5.533   1.938
  276LIG      N 4126   6.216   2.684   9.510
  276LIG     H1 4127   6.145   2.692   9.585
  276LIG     H2 4128   6.205   2.593   9.460
  276LIG     H3 4129   6.308   2.682   9.558
  276LIG     CA 4130   6.214   2.798   9.414
  276LIG     HA 4131   6.109   2.813   9.390
  276LIG     CB 4132   6.275   2.922   9.489
  276LIG    HB1 4133   6.382   2.933   9.462
  276LIG    HB2 4134   6.270   2.911   9.599
  276LIG     CG 4135   6.203   3.052   9.458
  276LIG    OD1 4136   6.257   3.161   9.489
  276LIG    OD2 4137   6.087   3.050   9.407
  276LIG      C 4138   6.286   2.765   9.279
  276LIG    OT1 4139   6.338   2.652   9.261
  276LIG    OT2 4140   6.290   2.853   9.189
  277LIG      N 4141   3.498   1.743   6.845
  277LIG     H1 4142   3.510   1.651   6.797
  277LIG     H2 4143   3.593   1.777   6.872
  277LIG     H3 4144   3.444   1.726   6.932
  277LIG     CA 4145   3.428   1.839   6.754
  277LIG     HA 4146   3.485   1.842   6.662
  277LIG     CB 4147   3.284   1.787   6.726
  277LIG    HB1 4148   3.224   1.865   6.675
  277LIG    HB2 4149   3.232   1.759   6.820
  277LIG     CG 4150   3.287   1.668   6.633
  277LIG    OD1 4151   3.179   1.610   6.607
  277LIG    OD2 4152   3.398   1.629   6.587
  277LIG      C 4153   3.426   1.985   6.805
  277LIG    OT1 4154   3.481   2.015   6.915
  277LIG    OT2 4155   3.373   2.073   6.732
  278LIG      N 4156   5.966   1.537   1.153
  278LIG     H1 4157   5.991   1.487   1.241
  278LIG     H2 4158   5.868   1.568   1.163
  278LIG     H3 4159   5.973   1.472   1.072
  278LIG     CA 4160   6.049   1.658   1.127
  278LIG     HA 4161   6.046   1.713   1.220
  278LIG     CB 4162   6.195   1.618   1.092
  278LIG    HB1 4163   6.206   1.601   0.982
  278LIG    HB2 4164   6.226   1.526   1.145
  278LIG     CG 4165   6.293   1.726   1.134
  278LIG    OD1 4166   6.412   1.717   1.093
  278LIG    OD2 4167   6.257   1.812   1.220
  278LIG      C 4168   5.980   1.751   1.022
  278LIG    OT1 4169   5.855   1.744   1.010
  278LIG    OT2 4170   6.047   1.834   0.955
  279LIG      N 4171   1.245   5.991   8.065
  279LIG     H1 4172   1.147   6.015   8.042
  279LIG     H2 4173   1.273   5.902   8.020
  279LIG     H3 4174   1.254   5.979   8.168
  279LIG     CA 4175   1.342   6.097   8.026
  279LIG     HA 4176   1.337   6.105   7.918
  279LIG     CB 4177   1.300   6.231   8.096
  279LIG    HB1 4178   1.389   6.279   8.143
  279LIG    HB2 4179   1.225   6.216   8.176
  279LIG     CG 4180   1.244   6.333   7.998
  279LIG    OD1 4181   1.232   6.452   8.037
  279LIG    OD2 4182   1.206   6.295   7.884
  279LIG      C 4183   1.489   6.053   8.056
  279LIG    OT1 4184   1.512   5.936   8.099
  279LIG    OT2 4185   1.583   6.132   8.032
  280LIG      N 4186   8.607   1.125   6.048
  280LIG     H1 4187   8.631   1.198   5.978
  280LIG     H2 4188   8.692   1.085   6.092
  280LIG     H3 4189   8.557   1.048   5.999
  280LIG     CA 4190   8.513   1.174   6.154
  280LIG     HA 4191   8.571   1.240   6.217
  280LIG     CB 4192   8.400   1.254   6.084
  280LIG    HB1 4193   8.328   1.183   6.036
  280LIG    HB2 4194   8.441   1.320   6.005
  280LIG     CG 4195   8.324   1.344   6.178
  280LIG    OD1 4196   8.210   1.383   6.142
  280LIG    OD2 4197   8.378   1.387   6.283
  280LIG      C 4198   8.463   1.054   6.243
  280LIG    OT1 4199   8.522   0.943   6.233
  280LIG    OT2 4200   8.369   1.072   6.325
  281LIG      N 4201   4.074   0.545   2.778
  281LIG     H1 4202   3.999   0.481   2.813
  281LIG     H2 4203   4.160   0.489   2.763
  281LIG     H3 4204   4.093   0.620   2.847
  281LIG     CA 4205   4.035   0.612   2.651
  281LIG     HA 4206   4.079   0.554   2.572
  281LIG     CB 4207   3.880   0.614   2.644
  281LIG    HB1 4208   3.836   0.694   2.707
  281LIG    HB2 4209   3.837   0.517   2.676
  281LIG     CG 4210   3.835   0.633   2.500
  281LIG    OD1 4211   3.739   0.711   2.476
  281LIG    OD2 4212   3.890   0.562   2.412
  281LIG      C 4213   4.093   0.756   2.644
  281LIG    OT1 4214   4.137   0.810   2.750
  281LIG    OT2 4215   4.096   0.815   2.533
  282LIG      N 4216   0.021   5.444   7.962
  282LIG     H1 4217   0.034   5.505   7.878
  282LIG     H2 4218   9.922   5.414   7.972
  282LIG     H3 4219   0.049   5.496   8.047
  282LIG     CA 4220   0.114   5.328   7.960
  282LIG     HA 4221   0.055   5.237   7.959
  282LIG     CB 4222   0.204   5.343   7.834
  282LIG    HB1 4223   0.280   5.422   7.850
  282LIG    HB2 4224   0.143   5.369   7.745
  282LIG     CG 4225   0.273   5.213   7.801
  282LIG    OD1 4226   0.398   5.212   7.793
  282LIG    OD2 4227   0.202   5.113   7.771
  282LIG      C 4228   0.197   5.333   8.091
  282LIG    OT1 4229   0.195   5.439   8.160
  282LIG    OT2 4230   0.260   5.231   8.128
  283LIG      N 4231   7.961   7.360   1.889
  283LIG     H1 4232   8.030   7.360   1.966
  283LIG     H2 4233   7.887   7.290   1.908
  283LIG     H3 4234   8.010   7.330   1.802
  283LIG     CA 4235   7.899   7.494   1.864
  283LIG     HA 4236   7.890   7.544   1.959
  283LIG     CB 4237   7.994   7.568   1.767
  283LIG    HB1 4238   7.985   7.526   1.665
  283LIG    HB2 4239   8.100   7.559   1.799
  283LIG     CG 4240   7.967   7.717   1.760
  283LIG    OD1 4241   8.011   7.779   1.659
  283LIG    OD2 4242   7.912   7.774   1.857
  283LIG      C 4243   7.754   7.480   1.808
  283LIG    OT1 4244   7.704   7.365   1.789
  283LIG    OT2 4245   7.687   7.583   1.782
  284LIG      N 4246   1.472   3.081   9.748
  284LIG     H1 4247   1.436   3.001   9.804
  284LIG     H2 4248   1.395   3.117   9.687
  284LIG     H3 4249   1.549   3.049   9.686
  284LIG     CA 4250   1.519   3.194   9.833
  284LIG     HA 4251   1.432   3.242   9.875
  284LIG     CB 4252   1.608   3.133   9.945
  284LIG    HB1 4253   1.706   3.098   9.906
  284LIG    HB2 4254   1.556   3.047   9.993
  284LIG     CG 4255   1.632   3.233   0.056
  284LIG    OD1 4256   1.746   3.237   0.110
  284LIG    OD2 4257   1.534   3.301   0.096
  284LIG      C 4258   1.597   3.299   9.747
  284LIG    OT1 4259   1.648   3.264   9.637
  284LIG    OT2 4260   1.604   3.418   9.788
  285LIG      N 4261   9.368   4.931   1.373
  285LIG     H1 4262   9.439   4.855   1.364
  285LIG     H2 4263   9.356   4.976   1.280
  285LIG     H3 4264   9.394   5.003   1.443
  285LIG     CA 4265   9.235   4.874   1.408
  285LIG     HA 4266   9.241   4.768   1.386
  285LIG     CB 4267   9.207   4.900   1.558
  285LIG    HB1 4268   9.138   4.986   1.573
  285LIG    HB2 4269   9.299   4.921   1.616
  285LIG     CG 4270   9.146   4.776   1.618
  285LIG    OD1 4271   9.022   4.770   1.635
  285LIG    OD2 4272   9.225   4.680   1.641
  285LIG      C 4273   9.126   4.934   1.315
  285LIG    OT1 4274   9.157   5.019   1.227
  285LIG    OT2 4275   9.007   4.897   1.327
  286LIG      N 4276   7.892   1.435   5.679
  286LIG     H1 4277   7.812   1.431   5.746
  286LIG     H2 4278   7.971   1.379   5.716
  286LIG     H3 4279   7.920   1.535   5.670
  286LIG     CA 4280   7.848   1.398   5.542
  286LIG     HA 4281   7.906   1.312   5.511
  286LIG     CB 4282   7.696   1.366   5.548
  286LIG    HB1 4283   7.636   1.459   5.556
  286LIG    HB2 4284   7.674   1.303   5.637
  286LIG     CG 4285   7.650   1.286   5.428
  286LIG    OD1 4286   7.537   1.311   5.378
  286LIG    OD2 4287   7.719   1.188   5.391
  286LIG      C 4288   7.879   1.516   5.445
  286LIG    OT1 4289   7.919   1.626   5.492
  286LIG    OT2 4290   7.869   1.498   5.321
  287LIG      N 4291   6.392   0.598   1.360
  287LIG     H1 4292   6.452   0.531   1.308
  287LIG     H2 4293   6.298   0.556   1.373
  287LIG     H3 4294   6.383   0.686   1.305
  287LIG     CA 4295   6.442   0.620   1.499
  287LIG     HA 4296   6.535   0.566   1.509
  287LIG     CB 4297   6.461   0.774   1.517
  287LIG    HB1 4298   6.363   0.824   1.535
  287LIG    HB2 4299   6.508   0.819   1.427
  287LIG     CG 4300   6.555   0.806   1.631
  287LIG    OD1 4301   6.547   0.920   1.684
  287LIG    OD2 4302   6.648   0.726   1.658
  287LIG      C 4303   6.338   0.559   1.597
  287LIG    OT1 4304   6.227   0.518   1.551
  287LIG    OT2 4305   6.363   0.552   1.720
  288LIG      N 4306   9.821   9.262   8.394
  288LIG     H1 4307   9.895   9.194   8.366
  288LIG     H2 4308   9.790   9.319   8.313
  288LIG     H3 4309   9.854   9.327   8.468
  288LIG     CA 4310   9.700   9.188   8.441
  288LIG     HA 4311   9.701   9.092   8.393
  288LIG     CB 4312   9.724   9.168   8.594
  288LIG    HB1 4313   9.751   9.263   8.644
  288LIG    HB2 4314   9.809   9.098   8.608
  288LIG     CG 4315   9.606   9.114   8.672
  288LIG    OD1 4316   9.508   9.190   8.693
  288LIG    OD2 4317   9.614   8.998   8.721
  288LIG      C 4318   9.571   9.260   8.390
  288LIG    OT1 4319   9.583   9.368   8.326
  288LIG    OT2 4320   9.459   9.204   8.403
  289LIG      N 4321   0.552   8.542   8.946
  289LIG     H1 4322   0.653   8.523   8.927
  289LIG     H2 4323   0.511   8.582   8.859
  289LIG     H3 4324   0.540   8.612   9.021
  289LIG     CA 4325   0.479   8.417   8.981
  289LIG     HA 4326   0.537   8.333   8.946
  289LIG     CB 4327   0.466   8.415   9.137
  289LIG    HB1 4328   0.412   8.505   9.172
  289LIG    HB2 4329   0.568   8.416   9.182
  289LIG     CG 4330   0.395   8.294   9.193
  289LIG    OD1 4331   0.308   8.315   9.282
  289LIG    OD2 4332   0.428   8.178   9.157
  289LIG      C 4333   0.341   8.410   8.909
  289LIG    OT1 4334   0.295   8.511   8.851
  289LIG    OT2 4335   0.281   8.300   8.906
  290LIG      N 4336   8.033   0.733   6.200
  290LIG     H1 4337   8.061   0.783   6.287
  290LIG     H2 4338   7.999   0.801   6.129
  290LIG     H3 4339   7.957   0.663   6.217
  290LIG     CA 4340   8.147   0.662   6.136
  290LIG     HA 4341   8.233   0.728   6.143
  290LIG     CB 4342   8.169   0.531   6.217
  290LIG    HB1 4343   8.092   0.454   6.192
  290LIG    HB2 4344   8.163   0.554   6.326
  290LIG     CG 4345   8.306   0.472   6.197
  290LIG    OD1 4346   8.317   0.347   6.197
  290LIG    OD2 4347   8.404   0.551   6.201
  290LIG      C 4348   8.118   0.637   5.985
  290LIG    OT1 4349   8.008   0.678   5.937
  290LIG    OT2 4350   8.204   0.580   5.914
  291LIG      N 4351   7.296   1.459   4.861
  291LIG     H1 4352   7.342   1.367   4.873
  291LIG     H2 4353   7.358   1.530   4.905
  291LIG     H3 4354   7.206   1.459   4.914
  291LIG     CA 4355   7.272   1.492   4.718
  291LIG     HA 4356   7.368   1.491   4.668
  291LIG     CB 4357   7.175   1.386   4.656
  291LIG    HB1 4358   7.104   1.435   4.586
  291LIG    HB2 4359   7.114   1.334   4.733
  291LIG     CG 4360   7.250   1.281   4.576
  291LIG    OD1 4361   7.186   1.219   4.488
  291LIG    OD2 4362   7.369   1.256   4.606
  291LIG      C 4363   7.216   1.636   4.697
  291LIG    OT1 4364   7.178   1.704   4.795
  291LIG    OT2 4365   7.213   1.681   4.580
  292LIG      N 4366   1.844   0.897   1.526
  292LIG     H1 4367   1.923   0.830   1.524
  292LIG     H2 4368   1.796   0.896   1.434
  292LIG     H3 4369   1.883   0.993   1.540
  292LIG     CA 4370   1.743   0.869   1.632
  292LIG     HA 4371   1.713   0.766   1.619
  292LIG     CB 4372   1.807   0.892   1.772
  292LIG    HB1 4373   1.753   0.973   1.826
  292LIG    HB2 4374   1.914   0.921   1.767
  292LIG     CG 4375   1.798   0.766   1.854
  292LIG    OD1 4376   1.716   0.763   1.950
  292LIG    OD2 4377   1.874   0.669   1.826
  292LIG      C 4378   1.614   0.954   1.611
  292LIG    OT1 4379   1.604   1.033   1.513
  292LIG    OT2 4380   1.519   0.937   1.692
  293LIG      N 4381   1.656   6.349   2.098
  293LIG     H1 4382   1.696   6.365   2.192
  293LIG     H2 4383   1.729   6.349   2.024
  293LIG     H3 4384   1.589   6.425   2.074
  293LIG     CA 4385   1.583   6.218   2.092
  293LIG     HA 4386   1.647   6.148   2.143
  293LIG     CB 4387   1.445   6.235   2.162
  293LIG    HB1 4388   1.362   6.222   2.089
  293LIG    HB2 4389   1.431   6.336   2.208
  293LIG     CG 4390   1.424   6.135   2.274
  293LIG    OD1 4391   1.311   6.128   2.327
  293LIG    OD2 4392   1.523   6.070   2.316
  293LIG      C 4393   1.573   6.165   1.946
  293LIG    OT1 4394   1.629   6.228   1.853
  293LIG    OT2 4395   1.516   6.055   1.924
  294LIG      N 4396   7.215   9.557   7.556
  294LIG     H1 4397   7.301   9.507   7.585
  294LIG     H2 4398   7.233   9.613   7.470
  294LIG     H3 4399   7.187   9.620   7.634
  294LIG     CA 4400   7.103   9.462   7.526
  294LIG     HA 4401   7.149   9.365   7.513
  294LIG     CB 4402   7.007   9.465   7.649
  294LIG    HB1 4403   6.925   9.538   7.631
  294LIG    HB2 4404   7.059   9.494   7.743
  294LIG     CG 4405   6.945   9.330   7.679
  294LIG    OD1 4406   6.854   9.325   7.767
  294LIG    OD2 4407   6.995   9.227   7.627
  294LIG      C 4408   7.031   9.497   7.392
  294LIG    OT1 4409   7.072   9.594   7.324
  294LIG    OT2 4410   6.935   9.426   7.352
  295LIG      N 4411   1.107   3.579   6.087
  295LIG     H1 4412   1.024   3.575   6.026
  295LIG     H2 4413   1.092   3.509   6.163
  295LIG     H3 4414   1.114   3.673   6.130
  295LIG     CA 4415   1.231   3.550   6.010
  295LIG     HA 4416   1.238   3.443   5.995
  295LIG     CB 4417   1.211   3.627   5.876
  295LIG    HB1 4418   1.199   3.736   5.894
  295LIG    HB2 4419   1.119   3.590   5.824
  295LIG     CG 4420   1.327   3.605   5.782
  295LIG    OD1 4421   1.406   3.701   5.763
  295LIG    OD2 4422   1.342   3.491   5.731
  295LIG      C 4423   1.358   3.598   6.086
  295LIG    OT1 4424   1.348   3.693   6.169
  295LIG    OT2 4425   1.469   3.544   6.063
  296LIG      N 4426   0.571   4.725   6.004
  296LIG     H1 4427   0.608   4.700   6.098
  296LIG     H2 4428   0.644   4.714   5.931
  296LIG     H3 4429   0.541   4.824   6.003
  296LIG     CA 4430   0.449   4.649   5.968
  296LIG     HA 4431   0.478   4.569   5.903
  296LIG     CB 4432   0.388   4.596   6.101
  296LIG    HB1 4433   0.356   4.678   6.168
  296LIG    HB2 4434   0.463   4.533   6.155
  296LIG     CG 4435   0.270   4.506   6.073
  296LIG    OD1 4436   0.165   4.520   6.141
  296LIG    OD2 4437   0.283   4.418   5.984
  296LIG      C 4438   0.353   4.744   5.891
  296LIG    OT1 4439   0.375   4.869   5.892
  296LIG    OT2 4440   0.256   4.696   5.827
  297LIG      N 4441   4.924   8.800   9.835
  297LIG     H1 4442   4.945   8.900   9.812
  297LIG     H2 4443   4.948   8.782   9.934
  297LIG     H3 4444   4.982   8.739   9.775
  297LIG     CA 4445   4.780   8.766   9.815
  297LIG     HA 4446   4.727   8.797   9.904
  297LIG     CB 4447   4.732   8.839   9.688
  297LIG    HB1 4448   4.756   8.779   9.597
  297LIG    HB2 4449   4.778   8.940   9.677
  297LIG     CG 4450   4.583   8.862   9.691
  297LIG    OD1 4451   4.524   8.875   9.580
  297LIG    OD2 4452   4.528   8.880   9.803
  297LIG      C 4453   4.762   8.612   9.799
  297LIG    OT1 4454   4.855   8.545   9.744
  297LIG    OT2 4455   4.659   8.557   9.844
  298LIG      N 4456   4.264   8.347   9.229
  298LIG     H1 4457   4.161   8.339   9.236
  298LIG     H2 4458   4.308   8.336   9.322
  298LIG     H3 4459   4.288   8.442   9.193
  298LIG     CA 4460   4.318   8.244   9.134
  298LIG     HA 4461   4.314   8.150   9.187
  298LIG     CB 4462   4.226   8.241   9.008
  298LIG    HB1 4463   4.258   8.317   8.933
  298LIG    HB2 4464   4.121   8.262   9.035
  298LIG     CG 4465   4.225   8.103   8.947
  298LIG    OD1 4466   4.241   8.089   8.823
  298LIG    OD2 4467   4.198   8.005   9.021
  298LIG      C 4468   4.466   8.270   9.094
  298LIG    OT1 4469   4.528   8.370   9.139
  298LIG    OT2 4470   4.521   8.190   9.013
  299LIG      N 4471   5.620   8.121   7.116
  299LIG     H1 4472   5.569   8.075   7.195
  299LIG     H2 4473   5.721   8.130   7.140
  299LIG     H3 4474   5.583   8.218   7.106
  299LIG     CA 4475   5.597   8.052   6.988
  299LIG     HA 4476   5.641   7.954   6.997
  299LIG     CB 4477   5.443   8.046   6.964
  299LIG    HB1 4478   5.410   8.129   6.898
  299LIG    HB2 4479   5.387   8.055   7.059
  299LIG     CG 4480   5.402   7.914   6.905
  299LIG    OD1 4481   5.305   7.912   6.825
  299LIG    OD2 4482   5.452   7.808   6.950
  299LIG      C 4483   5.671   8.124   6.871
  299LIG    OT1 4484   5.742   8.225   6.895
  299LIG    OT2 4485   5.659   8.078   6.755
  300LIG      N 4486   5.855   0.373   2.614
  300LIG     H1 4487   5.909   0.302   2.560
  300LIG     H2 4488   5.865   0.352   2.715
  300LIG     H3 4489   5.754   0.365   2.590
  300LIG     CA 4490   5.904   0.511   2.592
  300LIG     HA 4491   6.006   0.504   2.558
  300LIG     CB 4492   5.811   0.575   2.486
  300LIG    HB1 4493   5.713   0.603   2.530
  300LIG    HB2 4494   5.793   0.505   2.402
  300LIG     CG 4495   5.877   0.697   2.425
  300LIG    OD1 4496   5.806   0.798   2.404
  300LIG    OD2 4497   5.996   0.687   2.387
  300LIG      C 4498   5.905   0.588   2.728
  300LIG    OT1 4499   5.851   0.536   2.830
  300LIG    OT2 4500   5.960   0.701   2.735
  301LIG      N 4501   9.990   3.415   7.629
  301LIG     H1 4502   0.002   3.392   7.730
  301LIG     H2 4503   9.911   3.483   7.620
  301LIG     H3 4504   9.967   3.330   7.574
  301LIG     CA 4505   0.111   3.474   7.566
  301LIG     HA 4506   0.110   3.580   7.589
  301LIG     CB 4507   0.234   3.405   7.633
  301LIG    HB1 4508   0.258   3.308   7.584
  301LIG    HB2 4509   0.216   3.385   7.741
  301LIG     CG 4510   0.358   3.492   7.629
  301LIG    OD1 4511   0.465   3.446   7.677
  301LIG    OD2 4512   0.347   3.610   7.589
  301LIG      C 4513   0.101   3.459   7.411
  301LIG    OT1 4514   0.001   3.398   7.361
  301LIG    OT2 4515   0.189   3.510   7.337
  302LIG      N 4516   6.564   1.191   6.375
  302LIG     H1 4517   6.651   1.211   6.427
  302LIG     H2 4518   6.521   1.102   6.408
  302LIG     H3 4519   6.585   1.185   6.273
  302LIG     CA 4520   6.467   1.303   6.389
  302LIG     HA 4521   6.369   1.259   6.404
  302LIG     CB 4522   6.510   1.390   6.511
  302LIG    HB1 4523   6.594   1.457   6.484
  302LIG    HB2 4524   6.542   1.325   6.596
  302LIG     CG 4525   6.394   1.471   6.564
  302LIG    OD1 4526   6.417   1.585   6.612
  302LIG    OD2 4527   6.280   1.419   6.572
  302LIG      C 4528   6.462   1.385   6.256
  302LIG    OT1 4529   6.536   1.350   6.160
  302LIG    OT2 4530   6.382   1.481   6.247
  303LIG      N 4531   9.912   0.047   1.178
  303LIG     H1 4532   9.916   0.132   1.118
  303LIG     H2 4533   9.899   9.965   1.117
  303LIG     H3 4534   9.831   0.055   1.243
  303LIG     CA 4535   0.037   0.031   1.258
  303LIG     HA 4536   0.113   0.005   1.186
  303LIG     CB 4537   0.066   0.165   1.331
  303LIG    HB1 4538   0.032   0.164   1.437
  303LIG    HB2 4539   0.018   0.252   1.281
  303LIG     CG 4540   0.215   0.194   1.327
  303LIG    OD1 4541   0.268   0.259   1.420
  303LIG    OD2 4542   0.276   0.166   1.220
  303LIG      C 4543   0.028   9.912   1.359
  303LIG    OT1 4544   9.919   9.850   1.374
  303LIG    OT2 4545   0.132   9.880   1.423
  304LIG      N 4546   5.174   1.196   7.655
  304LIG     H1 4547   5.106   1.274   7.646
  304LIG     H2 4548   5.129   1.120   7.709
  304LIG     H3 4549   5.260   1.223   7.707
  304LIG     CA 4550   5.212   1.138   7.523
  304LIG     HA 4551   5.125   1.089   7.483
  304LIG     CB 4552   5.260   1.253   7.431
  304LIG    HB1 4553   5.366   1.279   7.452
  304LIG    HB2 4554   5.198   1.345   7.443
  304LIG     CG 4555   5.247   1.211   7.287
  304LIG    OD1 4556   5.351   1.199   7.216
  304LIG    OD2 4557   5.131   1.198   7.242
  304LIG      C 4558   5.325   1.034   7.544
  304LIG    OT1 4559   5.410   1.052   7.635
  304LIG    OT2 4560   5.323   0.932   7.471
  305LIG      N 4561   0.164   8.133   2.144
  305LIG     H1 4562   0.064   8.144   2.115
  305LIG     H2 4563   0.165   8.113   2.246
  305LIG     H3 4564   0.215   8.223   2.129
  305LIG     CA 4565   0.233   8.025   2.068
  305LIG     HA 4566   0.173   7.936   2.080
  305LIG     CB 4567   0.241   8.069   1.919
  305LIG    HB1 4568   0.325   8.141   1.903
  305LIG    HB2 4569   0.147   8.118   1.887
  305LIG     CG 4570   0.259   7.951   1.826
  305LIG    OD1 4571   0.319   7.966   1.716
  305LIG    OD2 4572   0.201   7.844   1.856
  305LIG      C 4573   0.374   7.995   2.127
  305LIG    OT1 4574   0.421   8.068   2.219
  305LIG    OT2 4575   0.439   7.896   2.084
  306LIG      N 4576   0.046   0.052   4.202
  306LIG     H1 4577   0.063   9.975   4.135
  306LIG     H2 4578   0.035   0.014   4.298
  306LIG     H3 4579   9.957   0.099   4.176
  306LIG     CA 4580   0.158   0.152   4.204
  306LIG     HA 4581   0.242   0.104   4.252
  306LIG     CB 4582   0.193   0.191   4.057
  306LIG    HB1 4583   0.118   0.261   4.014
  306LIG    HB2 4584   0.195   0.100   3.992
  306LIG     CG 4585   0.331   0.252   4.049
  306LIG    OD1 4586   0.348   0.359   3.985
  306LIG    OD2 4587   0.427   0.191   4.103
  306LIG      C 4588   0.122   0.279   4.288
  306LIG    OT1 4589   0.004   0.292   4.332
  306LIG    OT2 4590   0.212   0.363   4.313
  307LIG      N 4591   6.692   9.901   2.686
  307LIG     H1 4592   6.640   9.973   2.740
  307LIG     H2 4593   6.624   9.850   2.627
  307LIG     H3 4594   6.731   9.833   2.755
  307LIG     CA 4595   6.805   9.948   2.603
  307LIG     HA 4596   6.769   0.022   2.533
  307LIG     CB 4597   6.908   0.006   2.704
  307LIG    HB1 4598   6.948   9.924   2.769
  307LIG    HB2 4599   6.859   0.081   2.770
  307LIG     CG 4600   7.023   0.075   2.637
  307LIG    OD1 4601   7.135   0.019   2.632
  307LIG    OD2 4602   7.003   0.192   2.594
  307LIG      C 4603   6.865   9.828   2.523
  307LIG    OT1 4604   6.841   9.710   2.561
  307LIG    OT2 4605   6.937   9.850   2.422
  308LIG      N 4606   0.935   4.454   5.627
  308LIG     H1 4607   0.967   4.488   5.719
  308LIG     H2 4608   0.841   4.411   5.639
  308LIG     H3 4609   1.001   4.381   5.592
  308LIG     CA 4610   0.930   4.570   5.533
  308LIG     HA 4611   0.879   4.649   5.586
  308LIG     CB 4612   1.078   4.606   5.497
  308LIG    HB1 4613   1.106   4.560   5.400
  308LIG    HB2 4614   1.149   4.570   5.574
  308LIG     CG 4615   1.099   4.755   5.488
  308LIG    OD1 4616   1.204   4.797   5.432
  308LIG    OD2 4617   1.022   4.831   5.552
  308LIG      C 4618   0.845   4.541   5.406
  308LIG    OT1 4619   0.807   4.423   5.383
  308LIG    OT2 4620   0.811   4.635   5.331
  309LIG      N 4621   1.989   0.339   4.844
  309LIG     H1 4622   1.889   0.311   4.846
  309LIG     H2 4623   2.022   0.359   4.941
  309LIG     H3 4624   2.000   0.427   4.790
  309LIG     CA 4625   2.070   0.230   4.784
  309LIG     HA 4626   2.049   0.139   4.840
  309LIG     CB 4627   2.019   0.218   4.639
  309LIG    HB1 4628   2.049   0.308   4.581
  309LIG    HB2 4629   1.908   0.211   4.636
  309LIG     CG 4630   2.069   0.093   4.570
  309LIG    OD1 4631   2.103   0.104   4.449
  309LIG    OD2 4632   2.065   9.984   4.633
  309LIG      C 4633   2.224   0.257   4.795
  309LIG    OT1 4634   2.265   0.370   4.834
  309LIG    OT2 4635   2.305   0.164   4.770
  310LIG      N 4636   2.828   5.625   9.654
  310LIG     H1 4637   2.796   5.526   9.646
  310LIG     H2 4638   2.759   5.678   9.710
  310LIG     H3 4639   2.837   5.671   9.561
  310LIG     CA 4640   2.953   5.637   9.735
  310LIG     HA 4641   2.981   5.538   9.768
  310LIG     CB 4642   3.063   5.701   9.644
  310LIG    HB1 4643   3.048   5.811   9.636
  310LIG    HB2 4644   3.060   5.657   9.542
  310LIG     CG 4645   3.202   5.672   9.697
  310LIG    OD1 4646   3.294   5.754   9.667
  310LIG    OD2 4647   3.222   5.561   9.751
  310LIG      C 4648   2.918   5.723   9.860
  310LIG    OT1 4649   2.800   5.766   9.874
  310LIG    OT2 4650   3.005   5.743   9.948
  311LIG      N 4651   1.806   8.200   0.311
  311LIG     H1 4652   1.769   8.117   0.261
  311LIG     H2 4653   1.725   8.259   0.342
  311LIG     H3 4654   1.861   8.257   0.243
  311LIG     CA 4655   1.892   8.162   0.426
  311LIG     HA 4656   1.833   8.099   0.490
  311LIG     CB 4657   2.018   8.087   0.372
  311LIG    HB1 4658   2.110   8.126   0.420
  311LIG    HB2 4659   2.032   8.102   0.262
  311LIG     CG 4660   2.017   7.937   0.398
  311LIG    OD1 4661   2.117   7.872   0.356
  311LIG    OD2 4662   1.922   7.880   0.457
  311LIG      C 4663   1.931   8.284   0.515
  311LIG    OT1 4664   1.880   8.398   0.493
  311LIG    OT2 4665   2.011   8.267   0.610
  312LIG      N 4666   9.848   9.610   2.981
  312LIG     H1 4667   9.777   9.548   3.024
  312LIG     H2 4668   9.808   9.704   2.964
  312LIG     H3 4669   9.880   9.574   2.888
  312LIG     CA 4670   9.970   9.623   3.065
  312LIG     HA 4671   9.943   9.664   3.161
  312LIG     CB 4672   0.029   9.480   3.073
  312LIG    HB1 4673   0.058   9.443   2.973
  312LIG    HB2 4674   9.956   9.409   3.117
  312LIG     CG 4675   0.151   9.477   3.162
  312LIG    OD1 4676   0.264   9.467   3.109
  312LIG    OD2 4677   0.134   9.486   3.286
  312LIG      C 4678   0.069   9.720   2.995
  312LIG    OT1 4679   0.067   9.729   2.870
  312LIG    OT2 4680   0.153   9.782   3.065
  313LIG      N 4681   6.915   0.193   8.555
  313LIG     H1 4682   6.892   0.162   8.652
  313LIG     H2 4683   6.920   0.110   8.492
  313LIG     H3 4684   7.011   0.234   8.555
  313LIG     CA 4685   6.822   0.296   8.499
  313LIG     HA 4686   6.728   0.248   8.479
  313LIG     CB 4687   6.806   0.406   8.609
  313LIG    HB1 4688   6.900   0.464   8.619
  313LIG    HB2 4689   6.782   0.359   8.707
  313LIG     CG 4690   6.692   0.503   8.581
  313LIG    OD1 4691   6.692   0.612   8.644
  313LIG    OD2 4692   6.598   0.471   8.504
  313LIG      C 4693   6.878   0.350   8.363
  313LIG    OT1 4694   6.989   0.308   8.320
  313LIG    OT2 4695   6.809   0.432   8.298
  314LIG      N 4696   0.207   8.971   1.164
  314LIG     H1 4697   0.237   9.063   1.203
  314LIG     H2 4698   0.198   8.902   1.241
  314LIG     H3 4699   0.276   8.937   1.094
  314LIG     CA 4700   0.074   8.982   1.097
  314LIG     HA 4701   0.000   8.974   1.176
  314LIG     CB 4702   0.069   9.121   1.026
  314LIG    HB1 4703   0.115   9.115   0.925
  314LIG    HB2 4704   0.124   9.199   1.084
  314LIG     CG 4705   9.927   9.171   1.014
  314LIG    OD1 4706   9.903   9.267   0.936
  314LIG    OD2 4707   9.840   9.127   1.092
  314LIG      C 4708   0.051   8.864   0.998
  314LIG    OT1 4709   0.147   8.788   0.971
  314LIG    OT2 4710   9.937   8.846   0.949
  315LIG      N 4711   5.033   9.518   6.059
  315LIG     H1 4712   5.080   9.560   5.977
  315LIG     H2 4713   5.024   9.590   6.133
  315LIG     H3 4714   5.090   9.440   6.097
  315LIG     CA 4715   4.900   9.456   6.029
  315LIG     HA 4716   4.823   9.525   6.060
  315LIG     CB 4717   4.896   9.434   5.874
  315LIG    HB1 4718   4.970   9.357   5.845
  315LIG    HB2 4719   4.922   9.528   5.821
  315LIG     CG 4720   4.761   9.390   5.822
  315LIG    OD1 4721   4.706   9.287   5.868
  315LIG    OD2 4722   4.710   9.452   5.725
  315LIG      C 4723   4.889   9.326   6.114
  315LIG    OT1 4724   4.994   9.266   6.150
  315LIG    OT2 4725   4.775   9.288   6.153
  316LIG      N 4726   9.165   2.402   2.418
  316LIG     H1 4727   9.089   2.457   2.461
  316LIG     H2 4728   9.214   2.347   2.492
  316LIG     H3 4729   9.235   2.464   2.372
  316LIG     CA 4730   9.112   2.306   2.317
  316LIG     HA 4731   9.128   2.207   2.357
  316LIG     CB 4732   8.961   2.339   2.298
  316LIG    HB1 4733   8.945   2.416   2.220
  316LIG    HB2 4734   8.916   2.375   2.393
  316LIG     CG 4735   8.886   2.213   2.265
  316LIG    OD1 4736   8.805   2.216   2.169
  316LIG    OD2 4737   8.904   2.112   2.338
  316LIG      C 4738   9.190   2.315   2.182
  316LIG    OT1 4739   9.264   2.415   2.159
  316LIG    OT2 4740   9.179   2.222   2.098
  317LIG      N 4741   0.313   7.608   1.859
  317LIG     H1 4742   0.265   7.701   1.866
  317LIG     H2 4743   0.415   7.620   1.869
  317LIG     H3 4744   0.289   7.567   1.767
  317LIG     CA 4745   0.263   7.515   1.964
  317LIG     HA 4746   0.280   7.564   2.059
  317LIG     CB 4747   0.112   7.493   1.936
  317LIG    HB1 4748   0.096   7.410   1.864
  317LIG    HB2 4749   0.066   7.585   1.893
  317LIG     CG 4750   0.034   7.466   2.062
  317LIG    OD1 4751   9.939   7.384   2.057
  317LIG    OD2 4752   0.055   7.537   2.164
  317LIG      C 4753   0.345   7.382   1.962
  317LIG    OT1 4754   0.441   7.368   1.881
  317LIG    OT2 4755   0.314   7.289   2.041
  318LIG      N 4756   7.443   6.745   0.812
  318LIG     H1 4757   7.513   6.814   0.845
  318LIG     H2 4758   7.370   6.797   0.760
  318LIG     H3 4759   7.395   6.697   0.892
  318LIG     CA 4760   7.498   6.644   0.717
  318LIG     HA 4761   7.554   6.697   0.642
  318LIG     CB 4762   7.590   6.552   0.803
  318LIG    HB1 4763   7.528   6.484   0.865
  318LIG    HB2 4764   7.654   6.613   0.870
  318LIG     CG 4765   7.684   6.465   0.721
  318LIG    OD1 4766   7.642   6.399   0.623
  318LIG    OD2 4767   7.802   6.454   0.763
  318LIG      C 4768   7.379   6.571   0.647
  318LIG    OT1 4769   7.264   6.573   0.699
  318LIG    OT2 4770   7.396   6.521   0.533
  319LIG      N 4771   0.363   9.323   4.814
  319LIG     H1 4772   0.389   9.424   4.817
  319LIG     H2 4773   0.388   9.281   4.722
  319LIG     H3 4774   0.259   9.320   4.820
  319LIG     CA 4775   0.424   9.239   4.921
  319LIG     HA 4776   0.518   9.284   4.951
  319LIG     CB 4777   0.324   9.239   5.040
  319LIG    HB1 4778   0.226   9.197   5.007
  319LIG    HB2 4779   0.307   9.344   5.072
  319LIG     CG 4780   0.372   9.166   5.164
  319LIG    OD1 4781   0.284   9.106   5.233
  319LIG    OD2 4782   0.490   9.179   5.202
  319LIG      C 4783   0.458   9.097   4.863
  319LIG    OT1 4784   0.438   9.074   4.741
  319LIG    OT2 4785   0.508   9.009   4.938
  320LIG      N 4786   2.145   2.743   0.888
  320LIG     H1 4787   2.148   2.642   0.913
  320LIG     H2 4788   2.177   2.801   0.968
  320LIG     H3 4789   2.048   2.773   0.864
  320LIG     CA 4790   2.240   2.773   0.776
  320LIG     HA 4791   2.303   2.686   0.765
  320LIG     CB 4792   2.157   2.796   0.647
  320LIG    HB1 4793   2.115   2.899   0.646
  320LIG    HB2 4794   2.073   2.724   0.640
  320LIG     CG 4795   2.240   2.776   0.522
  320LIG    OD1 4796   2.190   2.814   0.412
  320LIG    OD2 4797   2.349   2.714   0.528
  320LIG      C 4798   2.333   2.892   0.815
  320LIG    OT1 4799   2.330   2.934   0.935
  320LIG    OT2 4800   2.414   2.941   0.732
  321LIG      N 4801   5.153   0.933   5.077
  321LIG     H1 4802   5.239   0.889   5.116
  321LIG     H2 4803   5.157   0.942   4.974
  321LIG     H3 4804   5.137   1.024   5.124
  321LIG     CA 4805   5.044   0.838   5.115
  321LIG     HA 4806   5.064   0.745   5.064
  321LIG     CB 4807   5.045   0.816   5.269
  321LIG    HB1 4808   4.966   0.743   5.296
  321LIG    HB2 4809   5.025   0.911   5.323
  321LIG     CG 4810   5.177   0.759   5.320
  321LIG    OD1 4811   5.179   0.708   5.435
  321LIG    OD2 4812   5.280   0.777   5.251
  321LIG      C 4813   4.904   0.886   5.067
  321LIG    OT1 4814   4.888   1.001   5.017
  321LIG    OT2 4815   4.808   0.806   5.078
  322LIG      N 4816   0.682   4.518   9.640
  322LIG     H1 4817   0.665   4.492   9.739
  322LIG     H2 4818   0.778   4.553   9.624
  322LIG     H3 4819   0.618   4.596   9.614
  322LIG     CA 4820   0.650   4.411   9.542
  322LIG     HA 4821   0.742   4.362   9.513
  322LIG     CB 4822   0.557   4.313   9.618
  322LIG    HB1 4823   0.461   4.363   9.645
  322LIG    HB2 4824   0.608   4.283   9.712
  322LIG     CG 4825   0.523   4.186   9.544
  322LIG    OD1 4826   0.448   4.191   9.443
  322LIG    OD2 4827   0.562   4.076   9.594
  322LIG      C 4828   0.590   4.482   9.417
  322LIG    OT1 4829   0.541   4.598   9.430
  322LIG    OT2 4830   0.601   4.428   9.304
  323LIG      N 4831   0.153   0.628   6.630
  323LIG     H1 4832   0.094   0.689   6.691
  323LIG     H2 4833   0.124   0.528   6.638
  323LIG     H3 4834   0.253   0.632   6.659
  323LIG     CA 4835   0.143   0.669   6.487
  323LIG     HA 4836   0.038   0.677   6.465
  323LIG     CB 4837   0.220   0.804   6.472
  323LIG    HB1 4838   0.317   0.789   6.419
  323LIG    HB2 4839   0.243   0.849   6.571
  323LIG     CG 4840   0.140   0.909   6.396
  323LIG    OD1 4841   0.203   1.010   6.353
  323LIG    OD2 4842   0.015   0.900   6.398
  323LIG      C 4843   0.199   0.559   6.392
  323LIG    OT1 4844   0.254   0.457   6.440
  323LIG    OT2 4845   0.183   0.572   6.268
  324LIG      N 4846   3.929   0.752   9.700
  324LIG     H1 4847   3.911   0.681   9.774
  324LIG     H2 4848   3.848   0.746   9.635
  324LIG     H3 4849   4.016   0.731   9.647
  324LIG     CA 4850   3.940   0.886   9.764
  324LIG     HA 4851   3.842   0.911   9.802
  324LIG     CB 4852   4.046   0.872   9.878
  324LIG    HB1 4853   4.149   0.870   9.837
  324LIG    HB2 4854   4.030   0.779   9.935
  324LIG     CG 4855   4.035   0.984   9.980
  324LIG    OD1 4856   4.140   1.030   0.030
  324LIG    OD2 4857   3.920   1.020   0.017
  324LIG      C 4858   3.981   0.996   9.661
  324LIG    OT1 4859   4.037   0.963   9.553
  324LIG    OT2 4860   3.953   1.116   9.687
  325LIG      N 4861   8.740   1.610   2.208
  325LIG     H1 4862   8.730   1.671   2.124
  325LIG     H2 4863   8.744   1.673   2.291
  325LIG     H3 4864   8.830   1.559   2.200
  325LIG     CA 4865   8.625   1.518   2.228
  325LIG     HA 4866   8.538   1.581   2.232
  325LIG     CB 4867   8.621   1.420   2.106
  325LIG    HB1 4868   8.678   1.327   2.130
  325LIG    HB2 4869   8.667   1.465   2.016
  325LIG     CG 4870   8.480   1.382   2.067
  325LIG    OD1 4871   8.465   1.299   1.974
  325LIG    OD2 4872   8.383   1.439   2.123
  325LIG      C 4873   8.634   1.445   2.366
  325LIG    OT1 4874   8.742   1.449   2.431
  325LIG    OT2 4875   8.533   1.387   2.413
  326LIG      N 4876   0.475   6.415   0.063
  326LIG     H1 4877   0.532   6.501   0.051
  326LIG     H2 4878   0.468   6.364   9.973
  326LIG     H3 4879   0.379   6.440   0.092
  326LIG     CA 4880   0.535   6.329   0.169
  326LIG     HA 4881   0.639   6.356   0.177
  326LIG     CB 4882   0.455   6.355   0.300
  326LIG    HB1 4883   0.356   6.305   0.298
  326LIG    HB2 4884   0.437   6.464   0.314
  326LIG     CG 4885   0.532   6.309   0.420
  326LIG    OD1 4886   0.485   6.220   0.496
  326LIG    OD2 4887   0.644   6.363   0.441
  326LIG      C 4888   0.525   6.179   0.131
  326LIG    OT1 4889   0.436   6.141   0.050
  326LIG    OT2 4890   0.607   6.098   0.182
  327LIG      N 4891   9.260   0.372   3.273
  327LIG     H1 4892   9.284   0.276   3.244
  327LIG     H2 4893   9.198   0.412   3.201
  327LIG     H3 4894   9.344   0.433   3.278
  327LIG     CA 4895   9.180   0.381   3.399
  327LIG     HA 4896   9.165   0.281   3.436
  327LIG     CB 4897   9.264   0.467   3.498
  327LIG    HB1 4898   9.257   0.575   3.473
  327LIG    HB2 4899   9.371   0.437   3.493
  327LIG     CG 4900   9.225   0.450   3.644
  327LIG    OD1 4901   9.286   0.522   3.728
  327LIG    OD2 4902   9.140   0.363   3.677
  327LIG      C 4903   9.041   0.443   3.363
  327LIG    OT1 4904   9.018   0.474   3.243
  327LIG    OT2 4905   8.952   0.456   3.451
  328LIG      N 4906   4.331   8.451   8.606
  328LIG     H1 4907   4.276   8.525   8.655
  328LIG     H2 4908   4.377   8.389   8.675
  328LIG     H3 4909   4.407   8.500   8.555
  328LIG     CA 4910   4.248   8.374   8.509
  328LIG     HA 4911   4.176   8.317   8.565
  328LIG     CB 4912   4.178   8.480   8.418
  328LIG    HB1 4913   4.251   8.532   8.353
  328LIG    HB2 4914   4.128   8.556   8.481
  328LIG     CG 4915   4.069   8.419   8.333
  328LIG    OD1 4916   4.056   8.460   8.215
  328LIG    OD2 4917   3.987   8.340   8.388
  328LIG      C 4918   4.336   8.276   8.425
  328LIG    OT1 4919   4.461   8.290   8.421
  328LIG    OT2 4920   4.280   8.181   8.365
  329LIG      N 4921   1.727   8.040   5.417
  329LIG     H1 4922   1.666   7.966   5.376
  329LIG     H2 4923   1.726   8.029   5.520
  329LIG     H3 4924   1.688   8.133   5.392
  329LIG     CA 4925   1.871   8.028   5.377
  329LIG     HA 4926   1.875   7.974   5.283
  329LIG     CB 4927   1.922   8.173   5.358
  329LIG    HB1 4928   1.923   8.226   5.456
  329LIG    HB2 4929   1.857   8.229   5.288
  329LIG     CG 4930   2.060   8.176   5.298
  329LIG    OD1 4931   2.143   8.258   5.347
  329LIG    OD2 4932   2.086   8.102   5.199
  329LIG      C 4933   1.952   7.949   5.484
  329LIG    OT1 4934   1.894   7.913   5.590
  329LIG    OT2 4935   2.072   7.917   5.461
  330LIG      N 4936   1.994   9.394   8.306
  330LIG     H1 4937   2.089   9.390   8.265
  330LIG     H2 4938   1.932   9.451   8.244
  330LIG     H3 4939   1.997   9.444   8.397
  330LIG     CA 4940   1.935   9.260   8.332
  330LIG     HA 4941   1.865   9.238   8.252
  330LIG     CB 4942   2.054   9.158   8.334
  330LIG    HB1 4943   2.110   9.166   8.429
  330LIG    HB2 4944   2.124   9.179   8.250
  330LIG     CG 4945   2.008   9.016   8.313
  330LIG    OD1 4946   2.046   8.928   8.396
  330LIG    OD2 4947   1.941   8.987   8.211
  330LIG      C 4948   1.858   9.262   8.467
  330LIG    OT1 4949   1.879   9.357   8.547
  330LIG    OT2 4950   1.776   9.171   8.495
  331LIG      N 4951   0.138   5.119   3.635
  331LIG     H1 4952   0.136   5.018   3.611
  331LIG     H2 4953   0.108   5.129   3.734
  331LIG     H3 4954   0.069   5.172   3.577
  331LIG     CA 4955   0.275   5.174   3.614
  331LIG     HA 4956   0.334   5.137   3.697
  331LIG     CB 4957   0.327   5.118   3.479
  331LIG    HB1 4958   0.283   5.174   3.394
  331LIG    HB2 4959   0.302   5.011   3.468
  331LIG     CG 4960   0.478   5.125   3.475
  331LIG    OD1 4961   0.536   5.171   3.372
  331LIG    OD2 4962   0.542   5.076   3.573
  331LIG      C 4963   0.282   5.330   3.618
  331LIG    OT1 4964   0.176   5.398   3.627
  331LIG    OT2 4965   0.395   5.385   3.611
  332LIG      N 4966   8.634   6.389   7.335
  332LIG     H1 4967   8.657   6.292   7.308
  332LIG     H2 4968   8.717   6.450   7.320
  332LIG     H3 4969   8.607   6.394   7.435
  332LIG     CA 4970   8.522   6.446   7.253
  332LIG     HA 4971   8.558   6.454   7.151
  332LIG     CB 4972   8.401   6.348   7.266
  332LIG    HB1 4973   8.336   6.377   7.351
  332LIG    HB2 4974   8.437   6.244   7.283
  332LIG     CG 4975   8.318   6.339   7.140
  332LIG    OD1 4976   8.193   6.326   7.153
  332LIG    OD2 4977   8.377   6.325   7.030
  332LIG      C 4978   8.486   6.590   7.303
  332LIG    OT1 4979   8.527   6.629   7.416
  332LIG    OT2 4980   8.417   6.664   7.229
  333LIG      N 4981   0.010   2.584   3.435
  333LIG     H1 4982   9.911   2.616   3.440
  333LIG     H2 4983   0.057   2.597   3.526
  333LIG     H3 4984   0.063   2.637   3.363
  333LIG     CA 4985   0.011   2.439   3.399
  333LIG     HA 4986   9.932   2.390   3.455
  333LIG     CB 4987   9.991   2.434   3.246
  333LIG    HB1 4988   0.083   2.463   3.192
  333LIG    HB2 4989   9.907   2.500   3.215
  333LIG     CG 4990   9.949   2.295   3.204
  333LIG    OD1 4991   0.010   2.242   3.107
  333LIG    OD2 4992   9.848   2.244   3.258
  333LIG      C 4993   0.146   2.374   3.438
  333LIG    OT1 4994   0.247   2.445   3.458
  333LIG    OT2 4995   0.151   2.249   3.451
  334LIG      N 4996   9.484   1.670   0.506
  334LIG     H1 4997   9.386   1.692   0.481
  334LIG     H2 4998   9.491   1.575   0.547
  334LIG     H3 4999   9.515   1.742   0.575
  334LIG     CA 5000   9.574   1.690   0.388
  334LIG     HA 5001   9.660   1.625   0.401
  334LIG     CB 5002   9.493   1.653   0.260
  334LIG    HB1 5003   9.436   1.740   0.221
  334LIG    HB2 5004   9.422   1.571   0.280
  334LIG     CG 5005   9.586   1.601   0.152
  334LIG    OD1 5006   9.568   1.638   0.033
  334LIG    OD2 5007   9.670   1.513   0.183
  334LIG      C 5008   9.627   1.837   0.387
  334LIG    OT1 5009   9.587   1.916   0.477
  334LIG    OT2 5010   9.704   1.877   0.296
  335LIG      N 5011   8.690   2.270   8.792
  335LIG     H1 5012   8.752   2.325   8.729
  335LIG     H2 5013   8.683   2.317   8.885
  335LIG     H3 5014   8.731   2.177   8.809
  335LIG     CA 5015   8.553   2.254   8.733
  335LIG     HA 5016   8.538   2.340   8.670
  335LIG     CB 5017   8.548   2.118   8.657
  335LIG    HB1 5018   8.464   2.055   8.694
  335LIG    HB2 5019   8.641   2.057   8.669
  335LIG     CG 5020   8.528   2.139   8.509
  335LIG    OD1 5021   8.502   2.040   8.436
  335LIG    OD2 5022   8.549   2.253   8.461
  335LIG      C 5023   8.439   2.264   8.839
  335LIG    OT1 5024   8.470   2.271   8.961
  335LIG    OT2 5025   8.319   2.268   8.801
  336LIG      N 5026   2.082   5.260   3.873
  336LIG     H1 5027   2.079   5.324   3.955
  336LIG     H2 5028   2.042   5.312   3.792
  336LIG     H3 5029   2.023   5.176   3.890
  336LIG     CA 5030   2.225   5.228   3.845
  336LIG     HA 5031   2.282   5.283   3.918
  336LIG     CB 5032   2.244   5.074   3.863
  336LIG    HB1 5033   2.209   5.018   3.774
  336LIG    HB2 5034   2.186   5.039   3.952
  336LIG     CG 5035   2.388   5.041   3.892
  336LIG    OD1 5036   2.442   4.943   3.836
  336LIG    OD2 5037   2.449   5.109   3.980
  336LIG      C 5038   2.271   5.277   3.704
  336LIG    OT1 5039   2.184   5.314   3.619
  336LIG    OT2 5040   2.394   5.282   3.678
  337LIG      N 5041   6.767   8.472   1.199
  337LIG     H1 5042   6.805   8.554   1.251
  337LIG     H2 5043   6.796   8.386   1.249
  337LIG     H3 5044   6.811   8.467   1.105
  337LIG     CA 5045   6.619   8.475   1.185
  337LIG     HA 5046   6.579   8.486   1.285
  337LIG     CB 5047   6.580   8.592   1.090
  337LIG    HB1 5048   6.527   8.556   1.000
  337LIG    HB2 5049   6.667   8.651   1.056
  337LIG     CG 5050   6.488   8.689   1.162
  337LIG    OD1 5051   6.407   8.757   1.096
  337LIG    OD2 5052   6.505   8.707   1.286
  337LIG      C 5053   6.560   8.339   1.134
  337LIG    OT1 5054   6.638   8.243   1.109
  337LIG    OT2 5055   6.435   8.326   1.124
  338LIG      N 5056   7.644   0.793   7.118
  338LIG     H1 5057   7.605   0.703   7.152
  338LIG     H2 5058   7.710   0.833   7.188
  338LIG     H3 5059   7.566   0.859   7.098
  338LIG     CA 5060   7.717   0.762   6.991
  338LIG     HA 5061   7.796   0.692   7.015
  338LIG     CB 5062   7.619   0.701   6.887
  338LIG    HB1 5063   7.676   0.679   6.794
  338LIG    HB2 5064   7.539   0.774   6.861
  338LIG     CG 5065   7.554   0.573   6.933
  338LIG    OD1 5066   7.487   0.507   6.850
  338LIG    OD2 5067   7.563   0.539   7.054
  338LIG      C 5068   7.786   0.888   6.931
  338LIG    OT1 5069   7.757   1.002   6.977
  338LIG    OT2 5070   7.872   0.872   6.840
  339LIG      N 5071   4.565   1.719   8.663
  339LIG     H1 5072   4.504   1.692   8.743
  339LIG     H2 5073   4.505   1.723   8.578
  339LIG     H3 5074   4.635   1.644   8.651
  339LIG     CA 5075   4.635   1.850   8.682
  339LIG     HA 5076   4.559   1.926   8.692
  339LIG     CB 5077   4.717   1.835   8.814
  339LIG    HB1 5078   4.807   1.772   8.797
  339LIG    HB2 5079   4.656   1.787   8.893
  339LIG     CG 5080   4.760   1.968   8.870
  339LIG    OD1 5081   4.855   1.967   8.953
  339LIG    OD2 5082   4.696   2.072   8.845
  339LIG      C 5083   4.726   1.886   8.559
  339LIG    OT1 5084   4.739   1.802   8.465
  339LIG    OT2 5085   4.784   1.998   8.553
  340LIG      N 5086   2.897   9.523   0.348
  340LIG     H1 5087   2.847   9.599   0.298
  340LIG     H2 5088   2.851   9.512   0.440
  340LIG     H3 5089   2.997   9.549   0.365
  340LIG     CA 5090   2.885   9.395   0.273
  340LIG     HA 5091   2.786   9.357   0.294
  340LIG     CB 5092   2.904   9.425   0.122
  340LIG    HB1 5093   3.012   9.431   0.095
  340LIG    HB2 5094   2.857   9.521   0.092
  340LIG     CG 5095   2.836   9.318   0.040
  340LIG    OD1 5096   2.902   9.251   9.957
  340LIG    OD2 5097   2.712   9.301   0.058
  340LIG      C 5098   2.988   9.289   0.319
  340LIG    OT1 5099   3.095   9.325   0.375
  340LIG    OT2 5100   2.963   9.168   0.297
  341LIG      N 5101   6.626   7.916   9.127
  341LIG     H1 5102   6.728   7.935   9.116
  341LIG     H2 5103   6.608   7.814   9.121
  341LIG     H3 5104   6.569   7.964   9.056
  341LIG     CA 5105   6.585   7.958   9.264
  341LIG     HA 5106   6.631   7.889   9.333
  341LIG     CB 5107   6.635   8.102   9.292
  341LIG    HB1 5108   6.598   8.136   9.391
  341LIG    HB2 5109   6.600   8.174   9.215
  341LIG     CG 5110   6.786   8.105   9.297
  341LIG    OD1 5111   6.845   8.215   9.298
  341LIG    OD2 5112   6.846   7.994   9.300
  341LIG      C 5113   6.432   7.948   9.286
  341LIG    OT1 5114   6.353   7.942   9.187
  341LIG    OT2 5115   6.391   7.941   9.405
  342LIG      N 5116   8.010   2.031   4.008
  342LIG     H1 5117   7.973   1.942   4.046
  342LIG     H2 5118   8.019   2.027   3.905
  342LIG     H3 5119   8.104   2.049   4.049
  342LIG     CA 5120   7.921   2.148   4.037
  342LIG     HA 5121   7.821   2.109   4.046
  342LIG     CB 5122   7.969   2.213   4.170
  342LIG    HB1 5123   8.055   2.280   4.151
  342LIG    HB2 5124   8.000   2.136   4.244
  342LIG     CG 5125   7.859   2.292   4.237
  342LIG    OD1 5126   7.892   2.372   4.328
  342LIG    OD2 5127   7.738   2.271   4.208
  342LIG      C 5128   7.921   2.245   3.915
  342LIG    OT1 5129   7.980   2.209   3.809
  342LIG    OT2 5130   7.857   2.353   3.921
  343LIG      N 5131   9.568   9.837   3.936
  343LIG     H1 5132   9.581   9.871   3.839
  343LIG     H2 5133   9.592   9.916   3.999
  343LIG     H3 5134   9.637   9.762   3.956
  343LIG     CA 5135   9.430   9.783   3.956
  343LIG     HA 5136   9.362   9.860   3.925
  343LIG     CB 5137   9.419   9.655   3.867
  343LIG    HB1 5138   9.463   9.567   3.918
  343LIG    HB2 5139   9.473   9.669   3.771
  343LIG     CG 5140   9.276   9.625   3.827
  343LIG    OD1 5141   9.232   9.508   3.841
  343LIG    OD2 5142   9.209   9.714   3.769
  343LIG      C 5143   9.400   9.749   4.106
  343LIG    OT1 5144   9.490   9.755   4.193
  343LIG    OT2 5145   9.282   9.715   4.137
  344LIG      N 5146   0.588   8.198   3.932
  344LIG     H1 5147   0.580   8.301   3.928
  344LIG     H2 5148   0.501   8.159   3.892
  344LIG     H3 5149   0.592   8.170   4.033
  344LIG     CA 5150   0.707   8.142   3.859
  344LIG     HA 5151   0.686   8.147   3.753
  344LIG     CB 5152   0.829   8.232   3.895
  344LIG    HB1 5153   0.859   8.218   4.000
  344LIG    HB2 5154   0.800   8.339   3.881
  344LIG     CG 5155   0.946   8.209   3.802
  344LIG    OD1 5156   1.062   8.206   3.852
  344LIG    OD2 5157   0.928   8.206   3.678
  344LIG      C 5158   0.734   7.992   3.894
  344LIG    OT1 5159   0.677   7.940   3.994
  344LIG    OT2 5160   0.813   7.924   3.823
  345LIG      N 5161   5.685   7.467   9.485
  345LIG     H1 5162   5.647   7.392   9.547
  345LIG     H2 5163   5.654   7.559   9.522
  345LIG     H3 5164   5.649   7.459   9.387
  345LIG     CA 5165   5.834   7.461   9.480
  345LIG     HA 5166   5.874   7.497   9.573
  345LIG     CB 5167   5.883   7.317   9.447
  345LIG    HB1 5168   5.988   7.319   9.411
  345LIG    HB2 5169   5.820   7.272   9.367
  345LIG     CG 5170   5.879   7.226   9.567
  345LIG    OD1 5171   5.958   7.127   9.569
  345LIG    OD2 5172   5.790   7.244   9.653
  345LIG      C 5173   5.890   7.551   9.367
  345LIG    OT1 5174   5.815   7.584   9.271
  345LIG    OT2 5175   6.011   7.583   9.371
  346LIG      N 5176   4.873   8.407   6.522
  346LIG     H1 5177   4.938   8.487   6.538
  346LIG     H2 5178   4.912   8.353   6.442
  346LIG     H3 5179   4.782   8.446   6.489
  346LIG     CA 5180   4.859   8.320   6.642
  346LIG     HA 5181   4.958   8.307   6.683
  346LIG     CB 5182   4.765   8.394   6.743
  346LIG    HB1 5183   4.659   8.383   6.715
  346LIG    HB2 5184   4.788   8.503   6.745
  346LIG     CG 5185   4.787   8.344   6.884
  346LIG    OD1 5186   4.689   8.298   6.948
  346LIG    OD2 5187   4.901   8.358   6.935
  346LIG      C 5188   4.803   8.178   6.608
  346LIG    OT1 5189   4.752   8.156   6.495
  346LIG    OT2 5190   4.811   8.088   6.695
  347LIG      N 5191   8.070   3.938   2.974
  347LIG     H1 5192   7.990   3.879   3.006
  347LIG     H2 5193   8.063   3.959   2.872
  347LIG     H3 5194   8.158   3.884   2.985
  347LIG     CA 5195   8.081   4.064   3.051
  347LIG     HA 5196   7.993   4.122   3.029
  347LIG     CB 5197   8.091   4.030   3.203
  347LIG    HB1 5198   8.173   4.087   3.252
  347LIG    HB2 5199   8.113   3.922   3.221
  347LIG     CG 5200   7.962   4.063   3.274
  347LIG    OD1 5201   7.963   4.085   3.398
  347LIG    OD2 5202   7.854   4.057   3.209
  347LIG      C 5203   8.199   4.153   3.003
  347LIG    OT1 5204   8.268   4.117   2.904
  347LIG    OT2 5205   8.217   4.263   3.061
  348LIG      N 5206   4.595   1.601   7.000
  348LIG     H1 5207   4.676   1.639   7.053
  348LIG     H2 5208   4.510   1.658   7.018
  348LIG     H3 5209   4.575   1.504   7.031
  348LIG     CA 5210   4.625   1.604   6.854
  348LIG     HA 5211   4.622   1.707   6.823
  348LIG     CB 5212   4.767   1.545   6.830
  348LIG    HB1 5213   4.783   1.526   6.721
  348LIG    HB2 5214   4.782   1.449   6.884
  348LIG     CG 5215   4.873   1.644   6.872
  348LIG    OD1 5216   4.994   1.613   6.862
  348LIG    OD2 5217   4.835   1.756   6.916
  348LIG      C 5218   4.516   1.536   6.767
  348LIG    OT1 5219   4.412   1.492   6.822
  348LIG    OT2 5220   4.533   1.532   6.642
  349LIG      N 5221   1.878   0.368   7.544
  349LIG     H1 5222   1.861   0.291   7.611
  349LIG     H2 5223   1.866   0.460   7.591
  349LIG     H3 5224   1.812   0.362   7.464
  349LIG     CA 5225   2.018   0.360   7.492
  349LIG     HA 5226   2.081   0.332   7.575
  349LIG     CB 5227   2.020   0.253   7.378
  349LIG    HB1 5228   1.981   0.295   7.283
  349LIG    HB2 5229   1.958   0.165   7.406
  349LIG     CG 5230   2.159   0.198   7.355
  349LIG    OD1 5231   2.187   0.147   7.243
  349LIG    OD2 5232   2.240   0.189   7.451
  349LIG      C 5233   2.068   0.499   7.443
  349LIG    OT1 5234   1.989   0.597   7.444
  349LIG    OT2 5235   2.189   0.510   7.410
  350LIG      N 5236   1.895   0.544   6.612
  350LIG     H1 5237   1.820   0.480   6.647
  350LIG     H2 5238   1.922   0.517   6.515
  350LIG     H3 5239   1.979   0.529   6.672
  350LIG     CA 5240   1.855   0.687   6.616
  350LIG     HA 5241   1.782   0.699   6.538
  350LIG     CB 5242   1.797   0.716   6.758
  350LIG    HB1 5243   1.874   0.756   6.827
  350LIG    HB2 5244   1.753   0.625   6.804
  350LIG     CG 5245   1.682   0.814   6.748
  350LIG    OD1 5246   1.660   0.894   6.843
  350LIG    OD2 5247   1.602   0.802   6.652
  350LIG      C 5248   1.972   0.785   6.582
  350LIG    OT1 5249   2.087   0.741   6.557
  350LIG    OT2 5250   1.949   0.909   6.577
  351LIG      N 5251   9.739   0.473   4.138
  351LIG     H1 5252   9.774   0.522   4.053
  351LIG     H2 5253   9.681   0.539   4.194
  351LIG     H3 5254   9.819   0.444   4.197
  351LIG     CA 5255   9.658   0.352   4.106
  351LIG     HA 5256   9.590   0.376   4.025
  351LIG     CB 5257   9.761   0.243   4.065
  351LIG    HB1 5258   9.826   0.219   4.152
  351LIG    HB2 5259   9.825   0.281   3.982
  351LIG     CG 5260   9.697   0.116   4.014
  351LIG    OD1 5261   9.729   0.008   4.070
  351LIG    OD2 5262   9.622   0.119   3.914
  351LIG      C 5263   9.572   0.309   4.229
  351LIG    OT1 5264   9.589   0.367   4.340
  351LIG    OT2 5265   9.483   0.222   4.215
  352LIG      N 5266   2.066   2.320   9.052
  352LIG     H1 5267   1.963   2.320   9.066
  352LIG     H2 5268   2.088   2.293   8.954
  352LIG     H3 5269   2.105   2.248   9.116
  352LIG     CA 5270   2.128   2.454   9.077
  352LIG     HA 5271   2.047   2.526   9.081
  352LIG     CB 5272   2.202   2.449   9.214
  352LIG    HB1 5273   2.302   2.402   9.202
  352LIG    HB2 5274   2.143   2.391   9.287
  352LIG     CG 5275   2.219   2.587   9.277
  352LIG    OD1 5276   2.308   2.600   9.365
  352LIG    OD2 5277   2.135   2.677   9.252
  352LIG      C 5278   2.220   2.496   8.958
  352LIG    OT1 5279   2.215   2.426   8.852
  352LIG    OT2 5280   2.291   2.599   8.964
  353LIG      N 5281   8.262   8.440   6.629
  353LIG     H1 5282   8.219   8.400   6.543
  353LIG     H2 5283   8.232   8.539   6.637
  353LIG     H3 5284   8.365   8.443   6.618
  353LIG     CA 5285   8.227   8.365   6.753
  353LIG     HA 5286   8.119   8.365   6.759
  353LIG     CB 5287   8.283   8.220   6.742
  353LIG    HB1 5288   8.390   8.216   6.773
  353LIG    HB2 5289   8.275   8.182   6.638
  353LIG     CG 5290   8.203   8.122   6.826
  353LIG    OD1 5291   8.260   8.019   6.873
  353LIG    OD2 5292   8.079   8.139   6.837
  353LIG      C 5293   8.279   8.440   6.880
  353LIG    OT1 5294   8.339   8.550   6.868
  353LIG    OT2 5295   8.258   8.390   6.994
  354LIG      N 5296   1.799   3.823   0.542
  354LIG     H1 5297   1.813   3.909   0.599
  354LIG     H2 5298   1.853   3.833   0.454
  354LIG     H3 5299   1.700   3.812   0.515
  354LIG     CA 5300   1.849   3.704   0.617
  354LIG     HA 5301   1.941   3.737   0.663
  354LIG     CB 5302   1.744   3.664   0.726
  354LIG    HB1 5303   1.678   3.583   0.690
  354LIG    HB2 5304   1.680   3.751   0.754
  354LIG     CG 5305   1.811   3.620   0.854
  354LIG    OD1 5306   1.738   3.597   0.954
  354LIG    OD2 5307   1.937   3.613   0.860
  354LIG      C 5308   1.891   3.587   0.522
  354LIG    OT1 5309   1.894   3.606   0.397
  354LIG    OT2 5310   1.930   3.478   0.572
  355LIG      N 5311   8.887   3.664   9.752
  355LIG     H1 5312   8.967   3.720   9.787
  355LIG     H2 5313   8.840   3.715   9.675
  355LIG     H3 5314   8.820   3.645   9.830
  355LIG     CA 5315   8.940   3.536   9.699
  355LIG     HA 5316   9.038   3.563   9.662
  355LIG     CB 5317   8.949   3.431   9.814
  355LIG    HB1 5318   8.861   3.363   9.812
  355LIG    HB2 5319   8.954   3.479   9.914
  355LIG     CG 5320   9.076   3.351   9.801
  355LIG    OD1 5321   9.080   3.237   9.854
  355LIG    OD2 5322   9.177   3.407   9.750
  355LIG      C 5323   8.866   3.486   9.572
  355LIG    OT1 5324   8.802   3.570   9.502
  355LIG    OT2 5325   8.874   3.366   9.536
  356LIG      N 5326   9.998   4.411   5.957
  356LIG     H1 5327   0.042   4.326   5.916
  356LIG     H2 5328   9.994   4.485   5.883
  356LIG     H3 5329   0.062   4.447   6.031
  356LIG     CA 5330   9.861   4.394   6.009
  356LIG     HA 5331   9.815   4.315   5.952
  356LIG     CB 5332   9.872   4.359   6.160
  356LIG    HB1 5333   9.887   4.451   6.220
  356LIG    HB2 5334   9.957   4.290   6.178
  356LIG     CG 5335   9.749   4.286   6.209
  356LIG    OD1 5336   9.713   4.304   6.328
  356LIG    OD2 5337   9.695   4.202   6.133
  356LIG      C 5338   9.779   4.525   5.982
  356LIG    OT1 5339   9.834   4.619   5.917
  356LIG    OT2 5340   9.660   4.535   6.021
  357LIG      N 5341   8.070   0.234   8.659
  357LIG     H1 5342   8.164   0.215   8.698
  357LIG     H2 5343   8.000   0.165   8.695
  357LIG     H3 5344   8.072   0.228   8.556
  357LIG     CA 5345   8.020   0.367   8.703
  357LIG     HA 5346   8.081   0.397   8.787
  357LIG     CB 5347   8.035   0.464   8.581
  357LIG    HB1 5348   7.951   0.451   8.510
  357LIG    HB2 5349   8.130   0.444   8.528
  357LIG     CG 5350   8.044   0.608   8.626
  357LIG    OD1 5351   7.977   0.695   8.565
  357LIG    OD2 5352   8.126   0.637   8.717
  357LIG      C 5353   7.874   0.354   8.754
  357LIG    OT1 5354   7.812   0.245   8.736
  357LIG    OT2 5355   7.821   0.449   8.817
  358LIG      N 5356   0.972   7.338   5.400
  358LIG     H1 5357   0.884   7.291   5.431
  358LIG     H2 5358   0.998   7.305   5.305
  358LIG     H3 5359   1.052   7.319   5.464
  358LIG     CA 5360   0.949   7.486   5.389
  358LIG     HA 5361   0.864   7.499   5.324
  358LIG     CB 5362   0.925   7.549   5.531
  358LIG    HB1 5363   0.965   7.652   5.534
  358LIG    HB2 5364   0.975   7.490   5.611
  358LIG     CG 5365   0.777   7.560   5.562
  358LIG    OD1 5366   0.741   7.601   5.675
  358LIG    OD2 5367   0.694   7.525   5.474
  358LIG      C 5368   1.063   7.556   5.311
  358LIG    OT1 5369   1.159   7.487   5.268
  358LIG    OT2 5370   1.050   7.678   5.285
  359LIG      N 5371   6.453   5.181   0.478
  359LIG     H1 5372   6.435   5.151   0.576
  359LIG     H2 5373   6.395   5.118   0.418
  359LIG     H3 5374   6.553   5.172   0.452
  359LIG     CA 5375   6.402   5.319   0.453
  359LIG     HA 5376   6.299   5.321   0.486
  359LIG     CB 5377   6.490   5.418   0.533
  359LIG    HB1 5378   6.587   5.437   0.481
  359LIG    HB2 5379   6.510   5.381   0.635
  359LIG     CG 5380   6.415   5.548   0.547
  359LIG    OD1 5381   6.440   5.645   0.472
  359LIG    OD2 5382   6.324   5.553   0.633
  359LIG      C 5383   6.404   5.352   0.301
  359LIG    OT1 5384   6.484   5.291   0.225
  359LIG    OT2 5385   6.324   5.439   0.257
  360LIG      N 5386   2.620   9.291   8.498
  360LIG     H1 5387   2.700   9.355   8.479
  360LIG     H2 5388   2.561   9.283   8.413
  360LIG     H3 5389   2.562   9.334   8.573
  360LIG     CA 5390   2.668   9.154   8.536
  360LIG     HA 5391   2.775   9.153   8.516
  360LIG     CB 5392   2.638   9.131   8.687
  360LIG    HB1 5393   2.535   9.093   8.702
  360LIG    HB2 5394   2.650   9.224   8.745
  360LIG     CG 5395   2.737   9.032   8.744
  360LIG    OD1 5396   2.697   8.921   8.788
  360LIG    OD2 5397   2.858   9.066   8.747
  360LIG      C 5398   2.604   9.041   8.450
  360LIG    OT1 5399   2.508   9.068   8.372
  360LIG    OT2 5400   2.651   8.925   8.459
  361LIG      N 5401   4.047   7.218   9.822
  361LIG     H1 5402   4.088   7.219   9.918
  361LIG     H2 5403   4.119   7.259   9.758
  361LIG     H3 5404   3.968   7.285   9.820
  361LIG     CA 5405   4.006   7.082   9.773
  361LIG     HA 5406   4.097   7.024   9.766
  361LIG     CB 5407   3.909   7.021   9.878
  361LIG    HB1 5408   3.806   7.062   9.864
  361LIG    HB2 5409   3.942   7.045   9.981
  361LIG     CG 5410   3.902   6.870   9.870
  361LIG    OD1 5411   3.818   6.810   9.942
  361LIG    OD2 5412   3.986   6.807   9.801
  361LIG      C 5413   3.944   7.090   9.630
  361LIG    OT1 5414   3.928   7.203   9.577
  361LIG    OT2 5415   3.916   6.986   9.566
  362LIG      N 5416   4.779   8.095   3.276
  362LIG     H1 5417   4.754   8.013   3.217
  362LIG     H2 5418   4.716   8.100   3.358
  362LIG     H3 5419   4.766   8.181   3.220
  362LIG     CA 5420   4.921   8.087   3.321
  362LIG     HA 5421   4.938   7.983   3.344
  362LIG     CB 5422   5.010   8.135   3.201
  362LIG    HB1 5423   5.039   8.241   3.215
  362LIG    HB2 5424   4.954   8.128   3.105
  362LIG     CG 5425   5.135   8.052   3.180
  362LIG    OD1 5426   5.210   8.083   3.083
  362LIG    OD2 5427   5.157   7.952   3.253
  362LIG      C 5428   4.944   8.167   3.452
  362LIG    OT1 5429   4.849   8.235   3.501
  362LIG    OT2 5430   5.056   8.159   3.510
  363LIG      N 5431   1.914   0.955   0.571
  363LIG     H1 5432   1.927   1.004   0.481
  363LIG     H2 5433   1.836   0.998   0.625
  363LIG     H3 5434   2.000   0.959   0.630
  363LIG     CA 5435   1.873   0.814   0.548
  363LIG     HA 5436   1.830   0.810   0.449
  363LIG     CB 5437   2.000   0.724   0.558
  363LIG    HB1 5438   2.025   0.700   0.664
  363LIG    HB2 5439   2.087   0.774   0.512
  363LIG     CG 5440   1.981   0.595   0.480
  363LIG    OD1 5441   2.024   0.488   0.529
  363LIG    OD2 5442   1.933   0.604   0.364
  363LIG      C 5443   1.761   0.773   0.648
  363LIG    OT1 5444   1.724   0.857   0.735
  363LIG    OT2 5445   1.708   0.660   0.638
  364LIG      N 5446   7.140   1.399   8.626
  364LIG     H1 5447   7.173   1.324   8.563
  364LIG     H2 5448   7.161   1.373   8.724
  364LIG     H3 5449   7.037   1.412   8.618
  364LIG     CA 5450   7.204   1.532   8.601
  364LIG     HA 5451   7.310   1.517   8.593
  364LIG     CB 5452   7.147   1.585   8.466
  364LIG    HB1 5453   7.037   1.600   8.473
  364LIG    HB2 5454   7.165   1.510   8.385
  364LIG     CG 5455   7.213   1.713   8.423
  364LIG    OD1 5456   7.142   1.816   8.404
  364LIG    OD2 5457   7.337   1.712   8.402
  364LIG      C 5458   7.178   1.628   8.722
  364LIG    OT1 5459   7.103   1.591   8.816
  364LIG    OT2 5460   7.239   1.738   8.726
  365LIG      N 5461   1.791   4.585   5.389
  365LIG     H1 5462   1.695   4.606   5.356
  365LIG     H2 5463   1.809   4.483   5.383
  365LIG     H3 5464   1.797   4.607   5.490
  365LIG     CA 5465   1.892   4.664   5.313
  365LIG     HA 5466   1.923   4.605   5.228
  365LIG     CB 5467   1.819   4.793   5.266
  365LIG    HB1 5468   1.799   4.861   5.351
  365LIG    HB2 5469   1.721   4.766   5.219
  365LIG     CG 5470   1.896   4.866   5.159
  365LIG    OD1 5471   1.897   4.992   5.163
  365LIG    OD2 5472   1.945   4.803   5.062
  365LIG      C 5473   2.020   4.697   5.397
  365LIG    OT1 5474   2.023   4.673   5.521
  365LIG    OT2 5475   2.121   4.747   5.340
  366LIG      N 5476   5.843   9.930   5.025
  366LIG     H1 5477   5.802   0.014   4.979
  366LIG     H2 5478   5.828   9.935   5.128
  366LIG     H3 5479   5.945   9.924   5.007
  366LIG     CA 5480   5.786   9.801   4.978
  366LIG     HA 5481   5.700   9.781   5.040
  366LIG     CB 5482   5.744   9.819   4.829
  366LIG    HB1 5483   5.831   9.805   4.761
  366LIG    HB2 5484   5.702   9.920   4.811
  366LIG     CG 5485   5.634   9.723   4.787
  366LIG    OD1 5486   5.598   9.724   4.666
  366LIG    OD2 5487   5.577   9.652   4.873
  366LIG      C 5488   5.890   9.687   5.001
  366LIG    OT1 5489   6.008   9.718   5.035
  366LIG    OT2 5490   5.855   9.567   4.992
  367LIG      N 5491   9.754   3.194   5.615
  367LIG     H1 5492   9.704   3.240   5.535
  367LIG     H2 5493   9.689   3.187   5.696
  367LIG     H3 5494   9.835   3.253   5.643
  367LIG     CA 5495   9.800   3.059   5.575
  367LIG     HA 5496   9.719   3.013   5.521
  367LIG     CB 5497   9.924   3.081   5.485
  367LIG    HB1 5498   0.016   3.090   5.546
  367LIG    HB2 5499   9.914   3.173   5.423
  367LIG     CG 5500   9.938   2.969   5.384
  367LIG    OD1 5501   0.051   2.919   5.362
  367LIG    OD2 5502   9.835   2.940   5.317
  367LIG      C 5503   9.830   2.967   5.699
  367LIG    OT1 5504   9.806   3.010   5.815
  367LIG    OT2 5505   9.875   2.851   5.681
  368LIG      N 5506   2.492   9.507   0.097
  368LIG     H1 5507   2.484   9.412   0.138
  368LIG     H2 5508   2.493   9.499   9.993
  368LIG     H3 5509   2.580   9.554   0.128
  368LIG     CA 5510   2.378   9.595   0.135
  368LIG     HA 5511   2.290   9.553   0.089
  368LIG     CB 5512   2.370   9.604   0.291
  368LIG    HB1 5513   2.364   9.710   0.325
  368LIG    HB2 5514   2.460   9.560   0.340
  368LIG     CG 5515   2.248   9.534   0.345
  368LIG    OD1 5516   2.243   9.510   0.468
  368LIG    OD2 5517   2.157   9.499   0.265
  368LIG      C 5518   2.390   9.736   0.073
  368LIG    OT1 5519   2.499   9.773   0.021
  368LIG    OT2 5520   2.289   9.810   0.074
  369LIG      N 5521   4.221   1.357   0.691
  369LIG     H1 5522   4.215   1.264   0.643
  369LIG     H2 5523   4.196   1.347   0.792
  369LIG     H3 5524   4.149   1.418   0.648
  369LIG     CA 5525   4.354   1.420   0.673
  369LIG     HA 5526   4.425   1.374   0.739
  369LIG     CB 5527   4.390   1.397   0.523
  369LIG    HB1 5528   4.319   1.449   0.456
  369LIG    HB2 5529   4.386   1.288   0.499
  369LIG     CG 5530   4.530   1.443   0.490
  369LIG    OD1 5531   4.552   1.482   0.372
  369LIG    OD2 5532   4.621   1.434   0.576
  369LIG      C 5533   4.345   1.573   0.704
  369LIG    OT1 5534   4.242   1.636   0.668
  369LIG    OT2 5535   4.438   1.629   0.767
  370LIG      N 5536   8.027   7.052   6.953
  370LIG     H1 5537   8.025   7.155   6.968
  370LIG     H2 5538   8.110   7.029   6.895
  370LIG     H3 5539   7.942   7.024   6.901
  370LIG     CA 5540   8.030   6.983   7.085
  370LIG     HA 5541   8.134   6.965   7.111
  370LIG     CB 5542   7.961   7.082   7.183
  370LIG    HB1 5543   7.851   7.083   7.167
  370LIG    HB2 5544   8.000   7.185   7.169
  370LIG     CG 5545   7.991   7.048   7.327
  370LIG    OD1 5546   7.894   7.025   7.405
  370LIG    OD2 5547   8.110   7.050   7.367
  370LIG      C 5548   7.955   6.845   7.079
  370LIG    OT1 5549   7.865   6.826   6.993
  370LIG    OT2 5550   7.987   6.756   7.163
  371LIG      N 5551   8.727   2.102   6.156
  371LIG     H1 5552   8.775   2.187   6.192
  371LIG     H2 5553   8.717   2.032   6.233
  371LIG     H3 5554   8.778   2.059   6.077
  371LIG     CA 5555   8.585   2.137   6.123
  371LIG     HA 5556   8.568   2.236   6.165
  371LIG     CB 5557   8.565   2.139   5.969
  371LIG    HB1 5558   8.552   2.037   5.928
  371LIG    HB2 5559   8.652   2.188   5.919
  371LIG     CG 5560   8.445   2.224   5.933
  371LIG    OD1 5561   8.374   2.191   5.835
  371LIG    OD2 5562   8.427   2.333   5.996
  371LIG      C 5563   8.489   2.041   6.199
  371LIG    OT1 5564   8.539   1.958   6.279
  371LIG    OT2 5565   8.364   2.050   6.184
  372LIG      N 5566   1.295   3.367   9.346
  372LIG     H1 5567   1.255   3.440   9.408
  372LIG     H2 5568   1.219   3.334   9.282
  372LIG     H3 5569   1.325   3.286   9.405
  372LIG     CA 5570   1.409   3.421   9.266
  372LIG     HA 5571   1.372   3.510   9.219
  372LIG     CB 5572   1.527   3.452   9.363
  372LIG    HB1 5573   1.590   3.363   9.382
  372LIG    HB2 5574   1.489   3.488   9.461
  372LIG     CG 5575   1.612   3.564   9.307
  372LIG    OD1 5576   1.737   3.557   9.313
  372LIG    OD2 5577   1.553   3.666   9.262
  372LIG      C 5578   1.454   3.326   9.151
  372LIG    OT1 5579   1.392   3.218   9.132
  372LIG    OT2 5580   1.551   3.358   9.077
  373LIG      N 5581   0.113   7.280   2.423
  373LIG     H1 5582   0.068   7.214   2.357
  373LIG     H2 5583   0.061   7.370   2.418
  373LIG     H3 5584   0.211   7.297   2.395
  373LIG     CA 5585   0.104   7.229   2.563
  373LIG     HA 5586   9.999   7.211   2.581
  373LIG     CB 5587   0.187   7.097   2.571
  373LIG    HB1 5588   0.296   7.120   2.575
  373LIG    HB2 5589   0.168   7.035   2.481
  373LIG     CG 5590   0.148   7.011   2.689
  373LIG    OD1 5591   0.232   6.928   2.734
  373LIG    OD2 5592   0.030   7.015   2.731
  373LIG      C 5593   0.153   7.336   2.665
  373LIG    OT1 5594   0.216   7.438   2.625
  373LIG    OT2 5595   0.129   7.320   2.787
  374LIG      N 5596   2.225   8.624   2.555
  374LIG     H1 5597   2.208   8.590   2.459
  374LIG     H2 5598   2.185   8.559   2.626
  374LIG     H3 5599   2.176   8.716   2.565
  374LIG     CA 5600   2.371   8.644   2.580
  374LIG     HA 5601   2.417   8.550   2.553
  374LIG     CB 5602   2.420   8.758   2.487
  374LIG    HB1 5603   2.401   8.858   2.532
  374LIG    HB2 5604   2.371   8.755   2.388
  374LIG     CG 5605   2.568   8.743   2.461
  374LIG    OD1 5606   2.630   8.842   2.412
  374LIG    OD2 5607   2.622   8.631   2.476
  374LIG      C 5608   2.405   8.666   2.731
  374LIG    OT1 5609   2.325   8.622   2.819
  374LIG    OT2 5610   2.511   8.724   2.765
  375LIG      N 5611   2.951   6.791   9.692
  375LIG     H1 5612   2.884   6.716   9.718
  375LIG     H2 5613   2.924   6.881   9.737
  375LIG     H3 5614   2.948   6.806   9.590
  375LIG     CA 5615   3.092   6.754   9.723
  375LIG     HA 5616   3.120   6.800   9.816
  375LIG     CB 5617   3.097   6.598   9.728
  375LIG    HB1 5618   3.094   6.556   9.626
  375LIG    HB2 5619   3.009   6.560   9.785
  375LIG     CG 5620   3.216   6.546   9.804
  375LIG    OD1 5621   3.286   6.454   9.753
  375LIG    OD2 5622   3.232   6.587   9.922
  375LIG      C 5623   3.186   6.808   9.610
  375LIG    OT1 5624   3.134   6.854   9.504
  375LIG    OT2 5625   3.310   6.802   9.623
  376LIG      N 5626   7.350   9.766   1.091
  376LIG     H1 5627   7.410   9.851   1.089
  376LIG     H2 5628   7.318   9.745   0.994
  376LIG     H3 5629   7.265   9.785   1.148
  376LIG     CA 5630   7.426   9.650   1.148
  376LIG     HA 5631   7.492   9.615   1.070
  376LIG     CB 5632   7.504   9.697   1.273
  376LIG    HB1 5633   7.538   9.610   1.334
  376LIG    HB2 5634   7.443   9.763   1.340
  376LIG     CG 5635   7.627   9.770   1.227
  376LIG    OD1 5636   7.736   9.709   1.230
  376LIG    OD2 5637   7.611   9.884   1.176
  376LIG      C 5638   7.338   9.529   1.190
  376LIG    OT1 5639   7.214   9.544   1.202
  376LIG    OT2 5640   7.395   9.419   1.215
  377LIG      N 5641   8.093   9.907   0.007
  377LIG     H1 5642   8.030   9.829   9.982
  377LIG     H2 5643   8.113   9.907   0.109
  377LIG     H3 5644   8.046   9.996   9.981
  377LIG     CA 5645   8.221   9.899   9.931
  377LIG     HA 5646   8.264   9.802   9.954
  377LIG     CB 5647   8.192   9.916   9.778
  377LIG    HB1 5648   8.223   0.017   9.742
  377LIG    HB2 5649   8.084   9.904   9.756
  377LIG     CG 5650   8.262   9.810   9.696
  377LIG    OD1 5651   8.304   9.837   9.580
  377LIG    OD2 5652   8.260   9.692   9.740
  377LIG      C 5653   8.323   0.005   9.980
  377LIG    OT1 5654   8.290   0.088   0.069
  377LIG    OT2 5655   8.438   0.007   9.927
  378LIG      N 5656   2.436   4.136   6.466
  378LIG     H1 5657   2.339   4.167   6.446
  378LIG     H2 5658   2.474   4.096   6.378
  378LIG     H3 5659   2.433   4.062   6.538
  378LIG     CA 5660   2.524   4.247   6.514
  378LIG     HA 5661   2.522   4.324   6.438
  378LIG     CB 5662   2.463   4.299   6.647
  378LIG    HB1 5663   2.480   4.228   6.730
  378LIG    HB2 5664   2.353   4.311   6.634
  378LIG     CG 5665   2.516   4.436   6.683
  378LIG    OD1 5666   2.551   4.458   6.802
  378LIG    OD2 5667   2.512   4.526   6.596
  378LIG      C 5668   2.672   4.203   6.534
  378LIG    OT1 5669   2.707   4.084   6.512
  378LIG    OT2 5670   2.757   4.287   6.572
  379LIG      N 5671   0.762   5.200   2.487
  379LIG     H1 5672   0.864   5.209   2.466
  379LIG     H2 5673   0.709   5.244   2.410
  379LIG     H3 5674   0.738   5.250   2.576
  379LIG     CA 5675   0.726   5.056   2.491
  379LIG     HA 5676   0.781   5.011   2.409
  379LIG     CB 5677   0.769   4.996   2.629
  379LIG    HB1 5678   0.683   4.994   2.699
  379LIG    HB2 5679   0.850   5.057   2.676
  379LIG     CG 5680   0.826   4.855   2.620
  379LIG    OD1 5681   0.847   4.804   2.507
  379LIG    OD2 5682   0.863   4.797   2.725
  379LIG      C 5683   0.574   5.036   2.459
  379LIG    OT1 5684   0.497   5.136   2.460
  379LIG    OT2 5685   0.533   4.922   2.425
  380LIG      N 5686   6.884   9.761   9.349
  380LIG     H1 5687   6.805   9.755   9.416
  380LIG     H2 5688   6.938   9.672   9.350
  380LIG     H3 5689   6.950   9.835   9.382
  380LIG     CA 5690   6.846   9.808   9.212
  380LIG     HA 5691   6.861   9.725   9.145
  380LIG     CB 5692   6.697   9.857   9.219
  380LIG    HB1 5693   6.693   9.966   9.240
  380LIG    HB2 5694   6.640   9.805   9.299
  380LIG     CG 5695   6.622   9.830   9.091
  380LIG    OD1 5696   6.510   9.886   9.073
  380LIG    OD2 5697   6.665   9.742   9.013
  380LIG      C 5698   6.943   9.923   9.172
  380LIG    OT1 5699   7.016   9.972   9.263
  380LIG    OT2 5700   6.949   9.963   9.054
  381LIG      N 5701   4.819   1.524   5.977
  381LIG     H1 5702   4.917   1.498   5.998
  381LIG     H2 5703   4.789   1.579   6.060
  381LIG     H3 5704   4.760   1.438   5.976
  381LIG     CA 5705   4.800   1.599   5.850
  381LIG     HA 5706   4.825   1.702   5.869
  381LIG     CB 5707   4.895   1.537   5.743
  381LIG    HB1 5708   4.861   1.435   5.714
  381LIG    HB2 5709   4.998   1.529   5.785
  381LIG     CG 5710   4.905   1.623   5.619
  381LIG    OD1 5711   4.880   1.572   5.507
  381LIG    OD2 5712   4.941   1.744   5.631
  381LIG      C 5713   4.650   1.593   5.805
  381LIG    OT1 5714   4.569   1.521   5.869
  381LIG    OT2 5715   4.612   1.660   5.705
  382LIG      N 5716   0.382   6.777   0.418
  382LIG     H1 5717   0.308   6.726   0.365
  382LIG     H2 5718   0.395   6.869   0.371
  382LIG     H3 5719   0.472   6.725   0.413
  382LIG     CA 5720   0.348   6.797   0.562
  382LIG     HA 5721   0.278   6.879   0.565
  382LIG     CB 5722   0.285   6.665   0.614
  382LIG    HB1 5723   0.363   6.591   0.640
  382LIG    HB2 5724   0.217   6.620   0.538
  382LIG     CG 5725   0.199   6.692   0.736
  382LIG    OD1 5726   0.173   6.597   0.813
  382LIG    OD2 5727   0.146   6.806   0.748
  382LIG      C 5728   0.474   6.839   0.643
  382LIG    OT1 5729   0.584   6.852   0.582
  382LIG    OT2 5730   0.466   6.861   0.767
  383LIG      N 5731   9.639   5.575   7.718
  383LIG     H1 5732   9.728   5.591   7.667
  383LIG     H2 5733   9.639   5.631   7.805
  383LIG     H3 5734   9.629   5.476   7.748
  383LIG     CA 5735   9.522   5.605   7.630
  383LIG     HA 5736   9.505   5.711   7.633
  383LIG     CB 5737   9.566   5.557   7.489
  383LIG    HB1 5738   9.578   5.447   7.486
  383LIG    HB2 5739   9.663   5.603   7.461
  383LIG     CG 5740   9.472   5.600   7.378
  383LIG    OD1 5741   9.455   5.518   7.284
  383LIG    OD2 5742   9.428   5.718   7.376
  383LIG      C 5743   9.396   5.530   7.680
  383LIG    OT1 5744   9.408   5.438   7.766
  383LIG    OT2 5745   9.282   5.561   7.635
  384LIG      N 5746   9.826   6.865   8.793
  384LIG     H1 5747   9.889   6.885   8.874
  384LIG     H2 5748   9.839   6.936   8.719
  384LIG     H3 5749   9.728   6.871   8.826
  384LIG     CA 5750   9.850   6.729   8.738
  384LIG     HA 5751   9.957   6.722   8.720
  384LIG     CB 5752   9.805   6.631   8.849
  384LIG    HB1 5753   9.695   6.633   8.860
  384LIG    HB2 5754   9.849   6.661   8.946
  384LIG     CG 5755   9.852   6.488   8.826
  384LIG    OD1 5756   9.763   6.399   8.820
  384LIG    OD2 5757   9.975   6.463   8.825
  384LIG      C 5758   9.779   6.709   8.600
  384LIG    OT1 5759   9.711   6.803   8.551
  384LIG    OT2 5760   9.795   6.601   8.538
  385LIG      N 5761   0.605   2.916   6.915
  385LIG     H1 5762   0.674   2.994   6.922
  385LIG     H2 5763   0.623   2.848   6.991
  385LIG     H3 5764   0.610   2.868   6.822
  385LIG     CA 5765   0.468   2.966   6.943
  385LIG     HA 5766   0.473   3.074   6.950
  385LIG     CB 5767   0.379   2.919   6.825
  385LIG    HB1 5768   0.352   2.812   6.837
  385LIG    HB2 5769   0.431   2.933   6.728
  385LIG     CG 5770   0.252   3.000   6.811
  385LIG    OD1 5771   0.160   2.950   6.741
  385LIG    OD2 5772   0.248   3.118   6.855
  385LIG      C 5773   0.423   2.911   7.082
  385LIG    OT1 5774   0.495   2.824   7.139
  385LIG    OT2 5775   0.320   2.955   7.137
  386LIG      N 5776   7.036   3.525   9.866
  386LIG     H1 5777   7.082   3.465   9.936
  386LIG     H2 5778   7.107   3.575   9.808
  386LIG     H3 5779   6.977   3.596   9.915
  386LIG     CA 5780   6.953   3.441   9.775
  386LIG     HA 5781   7.018   3.367   9.732
  386LIG     CB 5782   6.845   3.377   9.867
  386LIG    HB1 5783   6.766   3.451   9.893
  386LIG    HB2 5784   6.889   3.339   9.962
  386LIG     CG 5785   6.781   3.257   9.801
  386LIG    OD1 5786   6.667   3.224   9.842
  386LIG    OD2 5787   6.847   3.194   9.714
  386LIG      C 5788   6.890   3.524   9.659
  386LIG    OT1 5789   6.873   3.648   9.673
  386LIG    OT2 5790   6.863   3.468   9.550
  387LIG      N 5791   4.780   1.355   9.420
  387LIG     H1 5792   4.712   1.399   9.356
  387LIG     H2 5793   4.868   1.410   9.420
  387LIG     H3 5794   4.802   1.259   9.388
  387LIG     CA 5795   4.733   1.342   9.560
  387LIG     HA 5796   4.712   1.442   9.594
  387LIG     CB 5797   4.604   1.253   9.560
  387LIG    HB1 5798   4.616   1.166   9.628
  387LIG    HB2 5799   4.579   1.214   9.459
  387LIG     CG 5800   4.484   1.332   9.609
  387LIG    OD1 5801   4.371   1.303   9.561
  387LIG    OD2 5802   4.499   1.422   9.695
  387LIG      C 5803   4.848   1.289   9.651
  387LIG    OT1 5804   4.966   1.281   9.605
  387LIG    OT2 5805   4.822   1.262   9.770
  388LIG      N 5806   1.941   5.547   4.236
  388LIG     H1 5807   1.903   5.622   4.297
  388LIG     H2 5808   1.957   5.588   4.142
  388LIG     H3 5809   1.868   5.474   4.228
  388LIG     CA 5810   2.068   5.488   4.290
  388LIG     HA 5811   2.111   5.562   4.356
  388LIG     CB 5812   2.031   5.356   4.364
  388LIG    HB1 5813   2.025   5.270   4.293
  388LIG    HB2 5814   1.931   5.365   4.412
  388LIG     CG 5815   2.127   5.323   4.476
  388LIG    OD1 5816   2.161   5.204   4.496
  388LIG    OD2 5817   2.159   5.416   4.555
  388LIG      C 5818   2.173   5.457   4.178
  388LIG    OT1 5819   2.137   5.456   4.058
  388LIG    OT2 5820   2.293   5.437   4.211
  389LIG      N 5821   5.275   1.341   9.565
  389LIG     H1 5822   5.172   1.342   9.546
  389LIG     H2 5823   5.292   1.270   9.639
  389LIG     H3 5824   5.307   1.433   9.601
  389LIG     CA 5825   5.355   1.300   9.446
  389LIG     HA 5826   5.331   1.197   9.425
  389LIG     CB 5827   5.317   1.390   9.325
  389LIG    HB1 5828   5.373   1.486   9.327
  389LIG    HB2 5829   5.208   1.411   9.324
  389LIG     CG 5830   5.345   1.319   9.194
  389LIG    OD1 5831   5.388   1.388   9.098
  389LIG    OD2 5832   5.314   1.197   9.183
  389LIG      C 5833   5.507   1.308   9.477
  389LIG    OT1 5834   5.552   1.407   9.541
  389LIG    OT2 5835   5.581   1.214   9.440
  390LIG      N 5836   6.981   3.585   0.721
  390LIG     H1 5837   6.992   3.482   0.720
  390LIG     H2 5838   7.069   3.623   0.681
  390LIG     H3 5839   6.972   3.622   0.818
  390LIG     CA 5840   6.867   3.632   0.638
  390LIG     HA 5841   6.893   3.615   0.535
  390LIG     CB 5842   6.742   3.549   0.679
  390LIG    HB1 5843   6.703   3.581   0.778
  390LIG    HB2 5844   6.767   3.441   0.684
  390LIG     CG 5845   6.634   3.565   0.574
  390LIG    OD1 5846   6.521   3.608   0.611
  390LIG    OD2 5847   6.658   3.529   0.456
  390LIG      C 5848   6.841   3.785   0.657
  390LIG    OT1 5849   6.894   3.846   0.754
  390LIG    OT2 5850   6.765   3.844   0.575
  391LIG      N 5851   3.341   1.909   6.097
  391LIG     H1 5852   3.340   1.868   6.001
  391LIG     H2 5853   3.441   1.917   6.126
  391LIG     H3 5854   3.293   1.842   6.160
  391LIG     CA 5855   3.282   2.046   6.103
  391LIG     HA 5856   3.248   2.068   6.003
  391LIG     CB 5857   3.162   2.042   6.202
  391LIG    HB1 5858   3.195   2.046   6.308
  391LIG    HB2 5859   3.100   1.951   6.186
  391LIG     CG 5860   3.070   2.159   6.174
  391LIG    OD1 5861   3.016   2.220   6.270
  391LIG    OD2 5862   3.045   2.188   6.054
  391LIG      C 5863   3.389   2.153   6.140
  391LIG    OT1 5864   3.511   2.120   6.139
  391LIG    OT2 5865   3.355   2.272   6.166
  392LIG      N 5866   0.562   4.528   5.293
  392LIG     H1 5867   0.655   4.574   5.299
  392LIG     H2 5868   0.536   4.496   5.389
  392LIG     H3 5869   0.570   4.445   5.232
  392LIG     CA 5870   0.453   4.617   5.245
  392LIG     HA 5871   0.482   4.718   5.271
  392LIG     CB 5872   0.444   4.596   5.092
  392LIG    HB1 5873   0.382   4.507   5.068
  392LIG    HB2 5874   0.544   4.583   5.046
  392LIG     CG 5875   0.384   4.716   5.022
  392LIG    OD1 5876   0.344   4.703   4.904
  392LIG    OD2 5877   0.386   4.828   5.080
  392LIG      C 5878   0.320   4.585   5.321
  392LIG    OT1 5879   0.321   4.495   5.410
  392LIG    OT2 5880   0.214   4.646   5.293
  393LIG      N 5881   7.906   4.938   3.659
  393LIG     H1 5882   7.842   4.996   3.716
  393LIG     H2 5883   7.880   4.944   3.558
  393LIG     H3 5884   7.900   4.838   3.686
  393LIG     CA 5885   8.048   4.983   3.667
  393LIG     HA 5886   8.047   5.091   3.671
  393LIG     CB 5887   8.117   4.918   3.791
  393LIG    HB1 5888   8.196   4.847   3.760
  393LIG    HB2 5889   8.045   4.862   3.855
  393LIG     CG 5890   8.179   5.023   3.880
  393LIG    OD1 5891   8.275   4.991   3.955
  393LIG    OD2 5892   8.122   5.135   3.890
  393LIG      C 5893   8.119   4.948   3.533
  393LIG    OT1 5894   8.051   4.902   3.437
  393LIG    OT2 5895   8.243   4.969   3.523
  394LIG      N 5896   9.410   6.533   6.252
  394LIG     H1 5897   9.448   6.436   6.248
  394LIG     H2 5898   9.359   6.549   6.163
  394LIG     H3 5899   9.488   6.602   6.255
  394LIG     CA 5900   9.323   6.547   6.372
  394LIG     HA 5901   9.233   6.491   6.350
  394LIG     CB 5902   9.399   6.487   6.494
  394LIG    HB1 5903   9.462   6.565   6.543
  394LIG    HB2 5904   9.467   6.405   6.464
  394LIG     CG 5905   9.303   6.426   6.592
  394LIG    OD1 5906   9.301   6.470   6.711
  394LIG    OD2 5907   9.231   6.329   6.555
  394LIG      C 5908   9.279   6.694   6.401
  394LIG    OT1 5909   9.325   6.789   6.333
  394LIG    OT2 5910   9.198   6.715   6.495
  395LIG      N 5911   2.424   9.950   6.828
  395LIG     H1 5912   2.390   9.866   6.878
  395LIG     H2 5913   2.445   0.026   6.896
  395LIG     H3 5914   2.349   9.983   6.763
  395LIG     CA 5915   2.546   9.916   6.749
  395LIG     HA 5916   2.618   9.879   6.820
  395LIG     CB 5917   2.506   9.803   6.649
  395LIG    HB1 5918   2.458   9.846   6.559
  395LIG    HB2 5919   2.434   9.732   6.695
  395LIG     CG 5920   2.624   9.718   6.605
  395LIG    OD1 5921   2.605   9.634   6.514
  395LIG    OD2 5922   2.735   9.729   6.663
  395LIG      C 5923   2.611   0.040   6.679
  395LIG    OT1 5924   2.559   0.155   6.689
  395LIG    OT2 5925   2.719   0.024   6.617
  396LIG      N 5926   1.516   4.219   3.201
  396LIG     H1 5927   1.414   4.199   3.210
  396LIG     H2 5928   1.545   4.189   3.107
  396LIG     H3 5929   1.564   4.159   3.271
  396LIG     CA 5930   1.539   4.365   3.225
  396LIG     HA 5931   1.461   4.418   3.174
  396LIG     CB 5932   1.522   4.383   3.381
  396LIG    HB1 5933   1.566   4.295   3.432
  396LIG    HB2 5934   1.413   4.386   3.405
  396LIG     CG 5935   1.589   4.502   3.448
  396LIG    OD1 5936   1.714   4.500   3.459
  396LIG    OD2 5937   1.519   4.590   3.503
  396LIG      C 5938   1.672   4.415   3.162
  396LIG    OT1 5939   1.766   4.334   3.137
  396LIG    OT2 5940   1.680   4.536   3.132
  397LIG      N 5941   1.868   4.418   5.869
  397LIG     H1 5942   1.885   4.378   5.964
  397LIG     H2 5943   1.939   4.381   5.802
  397LIG     H3 5944   1.875   4.522   5.873
  397LIG     CA 5945   1.731   4.379   5.826
  397LIG     HA 5946   1.730   4.272   5.810
  397LIG     CB 5947   1.630   4.418   5.938
  397LIG    HB1 5948   1.527   4.387   5.910
  397LIG    HB2 5949   1.630   4.528   5.955
  397LIG     CG 5950   1.664   4.350   6.070
  397LIG    OD1 5951   1.605   4.387   6.174
  397LIG    OD2 5952   1.753   4.261   6.068
  397LIG      C 5953   1.691   4.447   5.693
  397LIG    OT1 5954   1.755   4.548   5.653
  397LIG    OT2 5955   1.597   4.398   5.625
  398LIG      N 5956   0.952   9.204   1.919
  398LIG     H1 5957   0.894   9.219   1.834
  398LIG     H2 5958   1.047   9.174   1.888
  398LIG     H3 5959   0.912   9.128   1.977
  398LIG     CA 5960   0.965   9.324   2.005
  398LIG     HA 5961   1.040   9.386   1.959
  398LIG     CB 5962   0.826   9.394   2.013
  398LIG    HB1 5963   0.765   9.354   2.097
  398LIG    HB2 5964   0.768   9.381   1.919
  398LIG     CG 5965   0.843   9.543   2.030
  398LIG    OD1 5966   0.743   9.612   2.064
  398LIG    OD2 5967   0.949   9.595   1.989
  398LIG      C 5968   1.016   9.283   2.147
  398LIG    OT1 5969   1.025   9.161   2.176
  398LIG    OT2 5970   1.047   9.373   2.229
  399LIG      N 5971   9.317   7.856   3.116
  399LIG     H1 5972   9.324   7.796   3.032
  399LIG     H2 5973   9.382   7.821   3.189
  399LIG     H3 5974   9.221   7.848   3.157
  399LIG     CA 5975   9.342   8.001   3.087
  399LIG     HA 5976   9.449   8.013   3.085
  399LIG     CB 5977   9.279   8.035   2.949
  399LIG    HB1 5978   9.170   8.056   2.958
  399LIG    HB2 5979   9.293   7.951   2.878
  399LIG     CG 5980   9.348   8.154   2.885
  399LIG    OD1 5981   9.280   8.230   2.812
  399LIG    OD2 5982   9.474   8.164   2.895
  399LIG      C 5983   9.287   8.091   3.202
  399LIG    OT1 5984   9.246   8.038   3.309
  399LIG    OT2 5985   9.286   8.216   3.188
  400LIG      N 5986   2.297   0.221   6.207
  400LIG     H1 5987   2.216   0.158   6.222
  400LIG     H2 5988   2.361   0.180   6.136
  400LIG     H3 5989   2.350   0.234   6.296
  400LIG     CA 5990   2.253   0.354   6.153
  400LIG     HA 5991   2.179   0.335   6.078
  400LIG     CB 5992   2.192   0.441   6.267
  400LIG    HB1 5993   2.186   0.547   6.234
  400LIG    HB2 5994   2.253   0.437   6.360
  400LIG     CG 5995   2.050   0.399   6.301
  400LIG    OD1 5996   1.978   0.478   6.366
  400LIG    OD2 5997   2.008   0.286   6.265
  400LIG      C 5998   2.369   0.427   6.079
  400LIG    OT1 5999   2.478   0.367   6.061
  400LIG    OT2 6000   2.351   0.544   6.036
  401LIG      N 6001   4.303   0.285   2.470
  401LIG     H1 6002   4.322   0.248   2.375
  401LIG     H2 6003   4.245   0.217   2.523
  401LIG     H3 6004   4.243   0.368   2.454
  401LIG     CA 6005   4.428   0.325   2.541
  401LIG     HA 6006   4.490   0.236   2.546
  401LIG     CB 6007   4.494   0.439   2.458
  401LIG    HB1 6008   4.454   0.538   2.487
  401LIG    HB2 6009   4.473   0.423   2.350
  401LIG     CG 6010   4.644   0.439   2.471
  401LIG    OD1 6011   4.707   0.545   2.446
  401LIG    OD2 6012   4.702   0.329   2.488
  401LIG      C 6013   4.402   0.370   2.688
  401LIG    OT1 6014   4.284   0.379   2.732
  401LIG    OT2 6015   4.501   0.396   2.762
  402LIG      N 6016   0.210   1.680   4.406
  402LIG     H1 6017   0.228   1.682   4.303
  402LIG     H2 6018   0.301   1.673   4.456
  402LIG     H3 6019   0.155   1.595   4.430
  402LIG     CA 6020   0.132   1.801   4.445
  402LIG     HA 6021   0.202   1.884   4.444
  402LIG     CB 6022   0.018   1.817   4.340
  402LIG    HB1 6023   9.928   1.757   4.368
  402LIG    HB2 6024   0.050   1.783   4.239
  402LIG     CG 6025   9.978   1.962   4.321
  402LIG    OD1 6026   9.862   1.986   4.281
  402LIG    OD2 6027   0.069   2.048   4.327
  402LIG      C 6028   0.069   1.793   4.587
  402LIG    OT1 6029   0.069   1.683   4.649
  402LIG    OT2 6030   0.016   1.896   4.637
  403LIG      N 6031   8.596   7.166   5.867
  403LIG     H1 6032   8.595   7.063   5.882
  403LIG     H2 6033   8.602   7.190   5.766
  403LIG     H3 6034   8.682   7.202   5.913
  403LIG     CA 6035   8.484   7.233   5.938
  403LIG     HA 6036   8.399   7.230   5.871
  403LIG     CB 6037   8.459   7.154   6.071
  403LIG    HB1 6038   8.523   7.194   6.153
  403LIG    HB2 6039   8.482   7.046   6.060
  403LIG     CG 6040   8.314   7.159   6.114
  403LIG    OD1 6041   8.286   7.141   6.236
  403LIG    OD2 6042   8.227   7.160   6.024
  403LIG      C 6043   8.519   7.382   5.967
  403LIG    OT1 6044   8.635   7.423   5.943
  403LIG    OT2 6045   8.431   7.456   6.017
  404LIG      N 6046   8.420   3.252   4.498
  404LIG     H1 6047   8.450   3.156   4.474
  404LIG     H2 6048   8.477   3.287   4.579
  404LIG     H3 6049   8.320   3.253   4.526
  404LIG     CA 6050   8.436   3.349   4.386
  404LIG     HA 6051   8.542   3.370   4.376
  404LIG     CB 6052   8.383   3.278   4.258
  404LIG    HB1 6053   8.272   3.274   4.257
  404LIG    HB2 6054   8.422   3.174   4.252
  404LIG     CG 6055   8.434   3.347   4.133
  404LIG    OD1 6056   8.354   3.364   4.038
  404LIG    OD2 6057   8.557   3.373   4.124
  404LIG      C 6058   8.362   3.482   4.419
  404LIG    OT1 6059   8.296   3.491   4.527
  404LIG    OT2 6060   8.371   3.581   4.341
  405SOL     OW 6061   0.218   0.295   0.999
  405SOL    HW1 6062   0.233   0.270   1.090
  405SOL    HW2 6063   0.241   0.218   0.949
  406SOL     OW 6064   0.001   0.356   0.698
  406SOL    HW1 6065   9.975   0.410   0.772
  406SOL    HW2 6066   9.941   0.380   0.628
  407SOL     OW 6067   1.600   1.509   0.714
  407SOL    HW1 6068   1.558   1.463   0.787
  407SOL    HW2 6069   1.527   1.539   0.659
  408SOL     OW 6070   1.131   0.708   0.705
  408SOL    HW1 6071   1.176   0.791   0.695
  408SOL    HW2 6072   1.085   0.715   0.788
  409SOL     OW 6073   1.727   0.646   0.210
  409SOL    HW1 6074   1.767   0.712   0.153
  409SOL    HW2 6075   1.799   0.618   0.267
  410SOL     OW 6076   0.722   1.091   1.064
  410SOL    HW1 6077   0.764   1.079   1.149
  410SOL    HW2 6078   0.742   1.181   1.039
  411SOL     OW 6079   0.882   0.728   1.865
  411SOL    HW1 6080   0.830   0.782   1.924
  411SOL    HW2 6081   0.905   0.788   1.793
  412SOL     OW 6082   0.686   0.946   0.652
  412SOL    HW1 6083   0.755   0.951   0.718
  412SOL    HW2 6084   0.623   1.013   0.678
  413SOL     OW 6085   0.717   1.129   1.828
  413SOL    HW1 6086   0.741   1.216   1.863
  413SOL    HW2 6087   0.632   1.143   1.786
  414SOL     OW 6088   0.358   1.406   1.090
  414SOL    HW1 6089   0.279   1.366   1.054
  414SOL    HW2 6090   0.393   1.459   1.018
  415SOL     OW 6091   1.465   1.501   1.380
  415SOL    HW1 6092   1.513   1.583   1.393
  415SOL    HW2 6093   1.385   1.512   1.432
  416SOL     OW 6094   1.577   0.450   0.727
  416SOL    HW1 6095   1.486   0.465   0.700
  416SOL    HW2 6096   1.622   0.531   0.706
  417SOL     OW 6097   0.255   1.687   0.521
  417SOL    HW1 6098   0.237   1.776   0.550
  417SOL    HW2 6099   0.341   1.693   0.478
  418SOL     OW 6100   1.145   1.313   1.682
  418SOL    HW1 6101   1.230   1.271   1.687
  418SOL    HW2 6102   1.082   1.241   1.695
  419SOL     OW 6103   0.224   1.426   0.458
  419SOL    HW1 6104   0.228   1.519   0.480
  419SOL    HW2 6105   0.206   1.383   0.542
  420SOL     OW 6106   0.286   1.106   0.884
  420SOL    HW1 6107   0.287   1.012   0.901
  420SOL    HW2 6108   0.238   1.143   0.958
  421SOL     OW 6109   0.596   1.779   1.463
  421SOL    HW1 6110   0.509   1.770   1.501
  421SOL    HW2 6111   0.613   1.873   1.465
  422SOL     OW 6112   0.505   1.026   0.242
  422SOL    HW1 6113   0.516   1.089   0.171
  422SOL    HW2 6114   0.586   1.031   0.292
  423SOL     OW 6115   1.541   0.176   1.429
  423SOL    HW1 6116   1.598   0.236   1.382
  423SOL    HW2 6117   1.549   0.202   1.521
  424SOL     OW 6118   0.154   0.641   0.574
  424SOL    HW1 6119   0.110   0.577   0.518
  424SOL    HW2 6120   0.088   0.666   0.639
  425SOL     OW 6121   1.863   1.720   0.274
  425SOL    HW1 6122   1.933   1.708   0.339
  425SOL    HW2 6123   1.872   1.812   0.247
  426SOL     OW 6124   0.087   1.587   0.114
  426SOL    HW1 6125   0.074   1.504   0.160
  426SOL    HW2 6126   0.011   1.639   0.137
  427SOL     OW 6127   1.636   1.131   0.405
  427SOL    HW1 6128   1.714   1.102   0.358
  427SOL    HW2 6129   1.669   1.190   0.473
  428SOL     OW 6130   0.621   1.382   0.752
  428SOL    HW1 6131   0.584   1.295   0.742
  428SOL    HW2 6132   0.611   1.423   0.666
  429SOL     OW 6133   1.276   1.230   1.404
  429SOL    HW1 6134   1.310   1.172   1.335
  429SOL    HW2 6135   1.289   1.180   1.485
  430SOL     OW 6136   0.862   0.028   0.541
  430SOL    HW1 6137   0.882   0.120   0.524
  430SOL    HW2 6138   0.769   0.020   0.521
  431SOL     OW 6139   0.189   0.909   1.297
  431SOL    HW1 6140   0.270   0.860   1.280
  431SOL    HW2 6141   0.121   0.842   1.305
  432SOL     OW 6142   1.471   1.028   0.201
  432SOL    HW1 6143   1.405   0.976   0.248
  432SOL    HW2 6144   1.529   1.061   0.269
  433SOL     OW 6145   1.090   1.791   1.608
  433SOL    HW1 6146   1.159   1.748   1.557
  433SOL    HW2 6147   1.053   1.721   1.662
  434SOL     OW 6148   1.492   1.389   0.936
  434SOL    HW1 6149   1.423   1.434   0.984
  434SOL    HW2 6150   1.457   1.301   0.921
  435SOL     OW 6151   1.716   1.742   0.591
  435SOL    HW1 6152   1.665   1.728   0.512
  435SOL    HW2 6153   1.692   1.670   0.649
  436SOL     OW 6154   0.596   0.678   0.254
  436SOL    HW1 6155   0.565   0.696   0.165
  436SOL    HW2 6156   0.523   0.704   0.310
  437SOL     OW 6157   1.275   0.388   0.955
  437SOL    HW1 6158   1.188   0.352   0.968
  437SOL    HW2 6159   1.333   0.330   1.005
  438SOL     OW 6160   1.595   1.691   0.345
  438SOL    HW1 6161   1.686   1.692   0.318
  438SOL    HW2 6162   1.546   1.670   0.265
  439SOL     OW 6163   0.769   0.662   1.425
  439SOL    HW1 6164   0.779   0.618   1.510
  439SOL    HW2 6165   0.741   0.592   1.366
  440SOL     OW 6166   1.439   0.529   1.683
  440SOL    HW1 6167   1.449   0.575   1.765
  440SOL    HW2 6168   1.500   0.456   1.688
  441SOL     OW 6169   0.932   0.845   1.606
  441SOL    HW1 6170   1.005   0.794   1.570
  441SOL    HW2 6171   0.854   0.807   1.566
  442SOL     OW 6172   1.012   0.433   1.219
  442SOL    HW1 6173   0.923   0.434   1.255
  442SOL    HW2 6174   1.005   0.382   1.139
  443SOL     OW 6175   1.065   0.705   0.436
  443SOL    HW1 6176   1.087   0.700   0.529
  443SOL    HW2 6177   0.981   0.661   0.428
  444SOL     OW 6178   0.032   0.894   0.853
  444SOL    HW1 6179   0.120   0.876   0.887
  444SOL    HW2 6180   9.978   0.906   0.930
  445SOL     OW 6181   0.101   1.896   1.606
  445SOL    HW1 6182   0.108   1.932   1.694
  445SOL    HW2 6183   0.049   1.816   1.617
  446SOL     OW 6184   0.857   0.378   0.207
  446SOL    HW1 6185   0.898   0.441   0.148
  446SOL    HW2 6186   0.876   0.292   0.168
  447SOL     OW 6187   1.397   1.163   0.561
  447SOL    HW1 6188   1.474   1.147   0.507
  447SOL    HW2 6189   1.353   1.238   0.520
  448SOL     OW 6190   0.534   0.214   0.950
  448SOL    HW1 6191   0.536   0.225   1.045
  448SOL    HW2 6192   0.536   0.303   0.915
  449SOL     OW 6193   1.005   1.468   0.446
  449SOL    HW1 6194   0.979   1.546   0.398
  449SOL    HW2 6195   0.965   1.478   0.532
  450SOL     OW 6196   0.351   1.823   0.912
  450SOL    HW1 6197   0.384   1.734   0.902
  450SOL    HW2 6198   0.428   1.879   0.900
  451SOL     OW 6199   1.789   1.052   0.912
  451SOL    HW1 6200   1.762   0.980   0.855
  451SOL    HW2 6201   1.720   1.058   0.978
  452SOL     OW 6202   1.219   1.537   1.505
  452SOL    HW1 6203   1.212   1.470   1.573
  452SOL    HW2 6204   1.161   1.508   1.435
  453SOL     OW 6205   0.274   0.882   0.262
  453SOL    HW1 6206   0.354   0.928   0.237
  453SOL    HW2 6207   0.304   0.809   0.317
  454SOL     OW 6208   1.461   0.788   0.755
  454SOL    HW1 6209   1.458   0.729   0.830
  454SOL    HW2 6210   1.555   0.799   0.737
  455SOL     OW 6211   0.477   1.198   1.708
  455SOL    HW1 6212   0.448   1.116   1.668
  455SOL    HW2 6213   0.399   1.233   1.750
  456SOL     OW 6214   1.124   1.821   0.242
  456SOL    HW1 6215   1.161   1.833   0.330
  456SOL    HW2 6216   1.050   1.762   0.255
  457SOL     OW 6217   1.577   1.447   9.960
  457SOL    HW1 6218   1.664   1.448   0.001
  457SOL    HW2 6219   1.541   1.362   9.984
  458SOL     OW 6220   0.493   1.707   0.370
  458SOL    HW1 6221   0.504   1.792   0.413
  458SOL    HW2 6222   0.445   1.727   0.290
  459SOL     OW 6223   1.329   0.131   0.376
  459SOL    HW1 6224   1.349   0.103   0.286
  459SOL    HW2 6225   1.407   0.179   0.404
  460SOL     OW 6226   0.117   1.818   1.200
  460SOL    HW1 6227   0.187   1.757   1.225
  460SOL    HW2 6228   0.091   1.791   1.112
  461SOL     OW 6229   0.950   1.753   0.785
  461SOL    HW1 6230   1.031   1.712   0.814
  461SOL    HW2 6231   0.906   1.685   0.734
  462SOL     OW 6232   0.379   0.686   0.435
  462SOL    HW1 6233   0.412   0.597   0.439
  462SOL    HW2 6234   0.300   0.685   0.488
  463SOL     OW 6235   1.555   0.267   1.698
  463SOL    HW1 6236   1.581   0.262   1.790
  463SOL    HW2 6237   1.462   0.242   1.698
  464SOL     OW 6238   0.614   0.131   0.020
  464SOL    HW1 6239   0.631   0.065   0.086
  464SOL    HW2 6240   0.699   0.148   9.980
  465SOL     OW 6241   0.752   0.302   1.795
  465SOL    HW1 6242   0.818   0.234   1.782
  465SOL    HW2 6243   0.670   0.263   1.765
  466SOL     OW 6244   0.840   1.500   1.226
  466SOL    HW1 6245   0.828   1.466   1.137
  466SOL    HW2 6246   0.924   1.463   1.255
  467SOL     OW 6247   1.382   0.612   1.423
  467SOL    HW1 6248   1.407   0.595   1.514
  467SOL    HW2 6249   1.396   0.706   1.411
  468SOL     OW 6250   0.789   1.353   0.985
  468SOL    HW1 6251   0.876   1.359   0.945
  468SOL    HW2 6252   0.729   1.368   0.912
  469SOL     OW 6253   0.932   0.525   0.900
  469SOL    HW1 6254   0.902   0.512   0.810
  469SOL    HW2 6255   0.958   0.438   0.930
  470SOL     OW 6256   0.598   0.033   0.458
  470SOL    HW1 6257   0.528   0.040   0.523
  470SOL    HW2 6258   0.588   0.111   0.403
  471SOL     OW 6259   1.408   1.229   0.023
  471SOL    HW1 6260   1.439   1.157   0.078
  471SOL    HW2 6261   1.337   1.269   0.073
  472SOL     OW 6262   0.371   0.054   0.206
  472SOL    HW1 6263   0.435   0.121   0.232
  472SOL    HW2 6264   0.294   0.073   0.259
  473SOL     OW 6265   0.926   0.282   0.462
  473SOL    HW1 6266   0.897   0.314   0.377
  473SOL    HW2 6267   1.018   0.309   0.469
  474SOL     OW 6268   1.107   0.669   1.479
  474SOL    HW1 6269   1.080   0.585   1.517
  474SOL    HW2 6270   1.200   0.656   1.458
  475SOL     OW 6271   1.198   1.595   0.785
  475SOL    HW1 6272   1.229   1.603   0.694
  475SOL    HW2 6273   1.270   1.628   0.838
  476SOL     OW 6274   0.493   1.142   0.705
  476SOL    HW1 6275   0.428   1.128   0.774
  476SOL    HW2 6276   0.442   1.138   0.623
  477SOL     OW 6277   1.033   0.561   0.071
  477SOL    HW1 6278   1.026   0.653   0.048
  477SOL    HW2 6279   1.096   0.558   0.143
  478SOL     OW 6280   0.127   0.606   1.377
  478SOL    HW1 6281   0.209   0.565   1.351
  478SOL    HW2 6282   0.128   0.602   1.473
  479SOL     OW 6283   0.528   0.240   1.225
  479SOL    HW1 6284   0.560   0.220   1.313
  479SOL    HW2 6285   0.435   0.221   1.228
  480SOL     OW 6286   0.841   0.476   0.646
  480SOL    HW1 6287   0.821   0.537   0.575
  480SOL    HW2 6288   0.865   0.394   0.601
  481SOL     OW 6289   0.964   0.066   0.807
  481SOL    HW1 6290   0.931   0.050   0.718
  481SOL    HW2 6291   0.972   9.978   0.845
  482SOL     OW 6292   1.400   1.133   0.875
  482SOL    HW1 6293   1.358   1.050   0.898
  482SOL    HW2 6294   1.407   1.131   0.780
  483SOL     OW 6295   1.408   0.643   0.989
  483SOL    HW1 6296   1.367   0.557   0.986
  483SOL    HW2 6297   1.473   0.637   1.059
  484SOL     OW 6298   0.511   1.471   0.147
  484SOL    HW1 6299   0.439   1.482   0.209
  484SOL    HW2 6300   0.501   1.382   0.113
  485SOL     OW 6301   1.759   1.284   0.594
  485SOL    HW1 6302   1.852   1.296   0.617
  485SOL    HW2 6303   1.714   1.356   0.639
  486SOL     OW 6304   1.463   0.600   0.110
  486SOL    HW1 6305   1.402   0.578   0.180
  486SOL    HW2 6306   1.549   0.606   0.152
  487SOL     OW 6307   0.549   0.261   0.309
  487SOL    HW1 6308   0.609   0.296   0.243
  487SOL    HW2 6309   0.541   0.331   0.374
  488SOL     OW 6310   1.053   1.369   1.345
  488SOL    HW1 6311   0.986   1.330   1.401
  488SOL    HW2 6312   1.134   1.322   1.366
  489SOL     OW 6313   1.575   1.657   1.686
  489SOL    HW1 6314   1.587   1.690   1.597
  489SOL    HW2 6315   1.614   1.570   1.684
  490SOL     OW 6316   1.170   1.281   1.105
  490SOL    HW1 6317   1.106   1.305   1.173
  490SOL    HW2 6318   1.126   1.302   1.022
  491SOL     OW 6319   1.614   1.081   1.128
  491SOL    HW1 6320   1.616   1.143   1.200
  491SOL    HW2 6321   1.522   1.079   1.100
  492SOL     OW 6322   0.908   0.176   1.365
  492SOL    HW1 6323   0.935   0.120   1.292
  492SOL    HW2 6324   0.990   0.204   1.405
  493SOL     OW 6325   0.964   1.096   1.715
  493SOL    HW1 6326   0.881   1.101   1.764
  493SOL    HW2 6327   0.961   1.010   1.674
  494SOL     OW 6328   0.736   1.048   0.393
  494SOL    HW1 6329   0.724   1.009   0.480
  494SOL    HW2 6330   0.810   1.001   0.356
  495SOL     OW 6331   0.416   0.749   1.263
  495SOL    HW1 6332   0.475   0.795   1.323
  495SOL    HW2 6333   0.407   0.662   1.300
  496SOL     OW 6334   1.279   0.391   1.285
  496SOL    HW1 6335   1.314   0.468   1.330
  496SOL    HW2 6336   1.190   0.416   1.261
  497SOL     OW 6337   0.058   1.560   1.358
  497SOL    HW1 6338   0.018   1.647   1.353
  497SOL    HW2 6339   0.150   1.575   1.339
  498SOL     OW 6340   0.330   1.117   0.473
  498SOL    HW1 6341   0.330   1.178   0.399
  498SOL    HW2 6342   0.356   1.033   0.436
  499SOL     OW 6343   0.515   0.496   0.848
  499SOL    HW1 6344   0.533   0.558   0.778
  499SOL    HW2 6345   0.576   0.519   0.918
  500SOL     OW 6346   1.271   1.393   0.443
  500SOL    HW1 6347   1.316   1.470   0.476
  500SOL    HW2 6348   1.178   1.411   0.455
  501SOL     OW 6349   1.330   1.507   1.134
  501SOL    HW1 6350   1.380   1.502   1.215
  501SOL    HW2 6351   1.275   1.429   1.135
  502SOL     OW 6352   1.570   0.574   0.426
  502SOL    HW1 6353   1.610   0.610   0.506
  502SOL    HW2 6354   1.625   0.606   0.355
  503SOL     OW 6355   0.307   1.626   1.252
  503SOL    HW1 6356   0.308   1.560   1.182
  503SOL    HW2 6357   0.399   1.639   1.274
  504SOL     OW 6358   0.933   0.093   1.782
  504SOL    HW1 6359   0.991   0.127   1.850
  504SOL    HW2 6360   0.992   0.049   1.720
  505SOL     OW 6361   0.550   0.124   1.708
  505SOL    HW1 6362   0.605   0.049   1.685
  505SOL    HW2 6363   0.535   0.169   1.625
  506SOL     OW 6364   0.562   0.850   1.042
  506SOL    HW1 6365   0.604   0.935   1.059
  506SOL    HW2 6366   0.520   0.827   1.125
  507SOL     OW 6367   1.274   0.887   0.989
  507SOL    HW1 6368   1.184   0.854   0.985
  507SOL    HW2 6369   1.329   0.809   0.981
  508SOL     OW 6370   1.218   0.538   0.270
  508SOL    HW1 6371   1.222   0.465   0.330
  508SOL    HW2 6372   1.191   0.613   0.323
  509SOL     OW 6373   9.998   1.298   1.315
  509SOL    HW1 6374   0.050   1.246   1.376
  509SOL    HW2 6375   0.022   1.388   1.334
  510SOL     OW 6376   0.692   0.603   1.024
  510SOL    HW1 6377   0.776   0.604   0.979
  510SOL    HW2 6378   0.663   0.694   1.022
  511SOL     OW 6379   0.389   0.097   0.623
  511SOL    HW1 6380   0.354   0.186   0.628
  511SOL    HW2 6381   0.372   0.059   0.709
  512SOL     OW 6382   1.533   0.304   0.418
  512SOL    HW1 6383   1.596   0.270   0.481
  512SOL    HW2 6384   1.539   0.399   0.428
  513SOL     OW 6385   1.017   0.770   0.994
  513SOL    HW1 6386   1.003   0.778   1.088
  513SOL    HW2 6387   0.995   0.679   0.974
  514SOL     OW 6388   0.998   1.544   1.720
  514SOL    HW1 6389   0.937   1.557   1.647
  514SOL    HW2 6390   1.038   1.459   1.703
  515SOL     OW 6391   1.980   1.503   1.668
  515SOL    HW1 6392   1.935   1.550   1.598
  515SOL    HW2 6393   1.933   1.527   1.748
  516SOL     OW 6394   1.599   0.228   0.160
  516SOL    HW1 6395   1.526   0.170   0.140
  516SOL    HW2 6396   1.574   0.270   0.242
  517SOL     OW 6397   1.357   0.842   0.013
  517SOL    HW1 6398   1.398   0.759   0.037
  517SOL    HW2 6399   1.410   0.908   0.057
  518SOL     OW 6400   1.042   1.372   0.875
  518SOL    HW1 6401   1.058   1.297   0.817
  518SOL    HW2 6402   1.095   1.443   0.839
  519SOL     OW 6403   0.300   0.835   0.936
  519SOL    HW1 6404   0.391   0.840   0.966
  519SOL    HW2 6405   0.277   0.742   0.945
  520SOL     OW 6406   0.272   0.559   0.965
  520SOL    HW1 6407   0.242   0.471   0.987
  520SOL    HW2 6408   0.361   0.547   0.933
  521SOL     OW 6409   1.180   0.431   1.645
  521SOL    HW1 6410   1.130   0.457   1.723
  521SOL    HW2 6411   1.267   0.470   1.659
  522SOL     OW 6412   1.161   0.220   1.472
  522SOL    HW1 6413   1.158   0.286   1.541
  522SOL    HW2 6414   1.215   0.259   1.403
  523SOL     OW 6415   9.993   1.291   0.178
  523SOL    HW1 6416   9.907   1.329   0.197
  523SOL    HW2 6417   9.995   1.210   0.228
  524SOL     OW 6418   0.093   1.712   0.945
  524SOL    HW1 6419   0.123   1.623   0.923
  524SOL    HW2 6420   0.163   1.769   0.912
  525SOL     OW 6421   0.494   1.572   0.915
  525SOL    HW1 6422   0.564   1.637   0.925
  525SOL    HW2 6423   0.528   1.510   0.850
  526SOL     OW 6424   0.965   0.792   1.270
  526SOL    HW1 6425   1.036   0.758   1.325
  526SOL    HW2 6426   0.886   0.747   1.303
  527SOL     OW 6427   0.041   0.607   1.115
  527SOL    HW1 6428   0.128   0.608   1.077
  527SOL    HW2 6429   0.056   0.606   1.210
  528SOL     OW 6430   1.303   1.072   1.623
  528SOL    HW1 6431   1.393   1.051   1.646
  528SOL    HW2 6432   1.259   0.987   1.618
  529SOL     OW 6433   0.819   0.587   0.387
  529SOL    HW1 6434   0.828   0.512   0.328
  529SOL    HW2 6435   0.745   0.637   0.351
  530SOL     OW 6436   1.593   0.627   1.203
  530SOL    HW1 6437   1.545   0.591   1.278
  530SOL    HW2 6438   1.673   0.575   1.198
  531SOL     OW 6439   0.320   1.527   1.728
  531SOL    HW1 6440   0.377   1.523   1.805
  531SOL    HW2 6441   0.258   1.456   1.741
  532SOL     OW 6442   0.719   0.452   1.250
  532SOL    HW1 6443   0.653   0.383   1.248
  532SOL    HW2 6444   0.703   0.504   1.171
  533SOL     OW 6445   0.834   1.635   1.501
  533SOL    HW1 6446   0.853   1.591   1.418
  533SOL    HW2 6447   0.761   1.694   1.480
  534SOL     OW 6448   0.175   1.136   1.452
  534SOL    HW1 6449   0.162   1.103   1.541
  534SOL    HW2 6450   0.180   1.057   1.397
  535SOL     OW 6451   1.327   1.068   1.183
  535SOL    HW1 6452   1.310   0.997   1.122
  535SOL    HW2 6453   1.279   1.143   1.148
  536SOL     OW 6454   1.269   0.881   0.311
  536SOL    HW1 6455   1.235   0.845   0.393
  536SOL    HW2 6456   1.195   0.875   0.250
  537SOL     OW 6457   1.789   1.694   1.200
  537SOL    HW1 6458   1.835   1.723   1.121
  537SOL    HW2 6459   1.746   1.612   1.174
  538SOL     OW 6460   1.240   1.799   1.120
  538SOL    HW1 6461   1.293   1.847   1.056
  538SOL    HW2 6462   1.270   1.708   1.112
  539SOL     OW 6463   0.128   1.225   1.074
  539SOL    HW1 6464   0.112   1.239   1.167
  539SOL    HW2 6465   0.041   1.206   1.037
  540SOL     OW 6466   0.701   1.657   1.755
  540SOL    HW1 6467   0.642   1.732   1.747
  540SOL    HW2 6468   0.754   1.660   1.675
  541SOL     OW 6469   0.976   0.143   0.120
  541SOL    HW1 6470   1.046   0.191   0.076
  541SOL    HW2 6471   1.016   0.110   0.200
  542SOL     OW 6472   1.734   0.125   0.522
  542SOL    HW1 6473   1.776   0.131   0.436
  542SOL    HW2 6474   1.779   0.191   0.575
  543SOL     OW 6475   1.402   1.628   0.541
  543SOL    HW1 6476   1.463   1.643   0.469
  543SOL    HW2 6477   1.368   1.715   0.562
  544SOL     OW 6478   0.094   1.801   1.913
  544SOL    HW1 6479   0.068   1.738   1.980
  544SOL    HW2 6480   0.179   1.835   1.944
  545SOL     OW 6481   1.263   0.945   0.659
  545SOL    HW1 6482   1.336   0.892   0.690
  545SOL    HW2 6483   1.305   1.017   0.611
  546SOL     OW 6484   0.866   1.252   1.505
  546SOL    HW1 6485   0.897   1.205   1.582
  546SOL    HW2 6486   0.792   1.304   1.535
  547SOL     OW 6487   0.719   1.644   0.135
  547SOL    HW1 6488   0.678   1.730   0.124
  547SOL    HW2 6489   0.645   1.583   0.141
  548SOL     OW 6490   1.609   1.738   1.418
  548SOL    HW1 6491   1.668   1.732   1.343
  548SOL    HW2 6492   1.579   1.829   1.418
  549SOL     OW 6493   1.860   0.175   0.961
  549SOL    HW1 6494   1.913   0.140   0.890
  549SOL    HW2 6495   1.774   0.190   0.922
  550SOL     OW 6496   0.282   0.349   0.688
  550SOL    HW1 6497   0.187   0.362   0.688
  550SOL    HW2 6498   0.311   0.382   0.773
  551SOL     OW 6499   1.220   1.560   9.995
  551SOL    HW1 6500   1.214   1.492   0.063
  551SOL    HW2 6501   1.145   1.544   9.938
  552SOL     OW 6502   0.842   1.055   1.305
  552SOL    HW1 6503   0.913   0.990   1.307
  552SOL    HW2 6504   0.865   1.117   1.375
  553SOL     OW 6505   0.948   0.911   0.289
  553SOL    HW1 6506   0.983   0.889   0.203
  553SOL    HW2 6507   0.987   0.846   0.348
  554SOL     OW 6508   1.458   1.650   0.108
  554SOL    HW1 6509   1.370   1.622   0.084
  554SOL    HW2 6510   1.516   1.590   0.062
  555SOL     OW 6511   0.341   1.351   1.453
  555SOL    HW1 6512   0.328   1.400   1.534
  555SOL    HW2 6513   0.280   1.277   1.460
  556SOL     OW 6514   1.609   1.255   1.343
  556SOL    HW1 6515   1.603   1.187   1.410
  556SOL    HW2 6516   1.547   1.322   1.372
  557SOL     OW 6517   1.064   1.132   0.744
  557SOL    HW1 6518   0.994   1.075   0.775
  557SOL    HW2 6519   1.132   1.072   0.712
  558SOL     OW 6520   1.021   0.259   0.995
  558SOL    HW1 6521   1.001   0.210   0.915
  558SOL    HW2 6522   1.019   0.193   1.064
  559SOL     OW 6523   0.618   1.501   0.502
  559SOL    HW1 6524   0.655   1.443   0.435
  559SOL    HW2 6525   0.572   1.569   0.452
  560SOL     OW 6526   1.745   0.335   1.324
  560SOL    HW1 6527   1.782   0.404   1.269
  560SOL    HW2 6528   1.781   0.254   1.287
  561SOL     OW 6529   0.270   1.290   0.232
  561SOL    HW1 6530   0.179   1.279   0.206
  561SOL    HW2 6531   0.266   1.346   0.310
  562SOL     OW 6532   0.145   1.049   1.711
  562SOL    HW1 6533   0.058   1.008   1.715
  562SOL    HW2 6534   0.202   0.988   1.758
  563SOL     OW 6535   0.661   0.234   1.470
  563SOL    HW1 6536   0.746   0.204   1.437
  563SOL    HW2 6537   0.668   0.330   1.472
  564SOL     OW 6538   1.412   0.882   1.387
  564SOL    HW1 6539   1.386   0.944   1.319
  564SOL    HW2 6540   1.472   0.931   1.442
  565SOL     OW 6541   0.074   0.090   0.313
  565SOL    HW1 6542   0.128   0.163   0.343
  565SOL    HW2 6543   0.063   0.035   0.391
  566SOL     OW 6544   1.204   1.351   0.173
  566SOL    HW1 6545   1.110   1.333   0.179
  566SOL    HW2 6546   1.234   1.356   0.264
  567SOL     OW 6547   0.626   0.891   1.366
  567SOL    HW1 6548   0.698   0.952   1.347
  567SOL    HW2 6549   0.670   0.812   1.396
  568SOL     OW 6550   1.423   1.719   0.887
  568SOL    HW1 6551   1.409   1.813   0.898
  568SOL    HW2 6552   1.517   1.710   0.868
  569SOL     OW 6553   0.815   0.542   1.666
  569SOL    HW1 6554   0.832   0.598   1.742
  569SOL    HW2 6555   0.793   0.457   1.703
  570SOL     OW 6556   0.349   1.756   1.583
  570SOL    HW1 6557   0.263   1.796   1.573
  570SOL    HW2 6558   0.332   1.672   1.625
  571SOL     OW 6559   1.730   0.867   1.263
  571SOL    HW1 6560   1.676   0.792   1.242
  571SOL    HW2 6561   1.688   0.941   1.219
  572SOL     OW 6562   1.191   0.350   0.470
  572SOL    HW1 6563   1.246   0.274   0.452
  572SOL    HW2 6564   1.229   0.391   0.547
  573SOL     OW 6565   0.569   0.685   0.648
  573SOL    HW1 6566   0.623   0.764   0.660
  573SOL    HW2 6567   0.502   0.712   0.585
  574SOL     OW 6568   1.828   0.319   1.585
  574SOL    HW1 6569   1.796   0.336   1.496
  574SOL    HW2 6570   1.749   0.309   1.638
  575SOL     OW 6571   0.888   1.437   0.037
  575SOL    HW1 6572   0.819   1.379   0.005
  575SOL    HW2 6573   0.841   1.506   0.084
  576SOL     OW 6574   0.692   1.761   0.913
  576SOL    HW1 6575   0.659   1.851   0.913
  576SOL    HW2 6576   0.783   1.769   0.886
  577SOL     OW 6577   0.869   0.966   0.860
  577SOL    HW1 6578   0.921   0.899   0.904
  577SOL    HW2 6579   0.815   1.004   0.930
  578SOL     OW 6580   1.088   0.839   0.054
  578SOL    HW1 6581   1.052   0.877   9.974
  578SOL    HW2 6582   1.183   0.839   0.040
  579SOL     OW 6583   1.810   1.559   0.897
  579SOL    HW1 6584   1.748   1.539   0.826
  579SOL    HW2 6585   1.785   1.500   0.968
  580SOL     OW 6586   0.244   1.279   1.820
  580SOL    HW1 6587   0.190   1.205   1.790
  580SOL    HW2 6588   0.227   1.284   1.914
  581SOL     OW 6589   0.179   1.247   0.669
  581SOL    HW1 6590   0.196   1.195   0.748
  581SOL    HW2 6591   0.220   1.197   0.599
  582SOL     OW 6592   0.654   1.391   1.610
  582SOL    HW1 6593   0.587   1.332   1.644
  582SOL    HW2 6594   0.658   1.462   1.674
  583SOL     OW 6595   1.824   0.091   1.219
  583SOL    HW1 6596   1.741   0.044   1.208
  583SOL    HW2 6597   1.847   0.119   1.130
  584SOL     OW 6598   0.481   0.435   0.516
  584SOL    HW1 6599   0.549   0.483   0.563
  584SOL    HW2 6600   0.419   0.408   0.583
  585SOL     OW 6601   1.687   1.443   1.126
  585SOL    HW1 6602   1.618   1.423   1.063
  585SOL    HW2 6603   1.673   1.381   1.197
  586SOL     OW 6604   0.383   0.500   1.391
  586SOL    HW1 6605   0.380   0.537   1.479
  586SOL    HW2 6606   0.351   0.411   1.400
  587SOL     OW 6607   0.840   1.541   0.657
  587SOL    HW1 6608   0.769   1.551   0.593
  587SOL    HW2 6609   0.806   1.478   0.720
  588SOL     OW 6610   1.438   0.232   1.120
  588SOL    HW1 6611   1.474   0.157   1.167
  588SOL    HW2 6612   1.392   0.283   1.187
  589SOL     OW 6613   1.041   0.030   1.161
  589SOL    HW1 6614   1.010   9.941   1.178
  589SOL    HW2 6615   1.135   0.020   1.149
  590SOL     OW 6616   0.765   1.323   0.355
  590SOL    HW1 6617   0.757   1.229   0.365
  590SOL    HW2 6618   0.857   1.342   0.372
  591SOL     OW 6619   0.584   1.561   1.295
  591SOL    HW1 6620   0.590   1.634   1.356
  591SOL    HW2 6621   0.673   1.552   1.260
  592SOL     OW 6622   1.375   0.059   0.109
  592SOL    HW1 6623   1.398   0.061   0.016
  592SOL    HW2 6624   1.346   9.969   0.124
  593SOL     OW 6625   1.293   0.475   0.693
  593SOL    HW1 6626   1.249   0.560   0.694
  593SOL    HW2 6627   1.286   0.444   0.783
  594SOL     OW 6628   1.593   0.218   0.876
  594SOL    HW1 6629   1.540   0.233   0.955
  594SOL    HW2 6630   1.588   0.301   0.828
  595SOL     OW 6631   0.055   1.055   0.306
  595SOL    HW1 6632   0.126   0.997   0.280
  595SOL    HW2 6633   0.051   1.046   0.401
  596SOL     OW 6634   0.894   1.698   0.337
  596SOL    HW1 6635   0.829   1.672   0.271
  596SOL    HW2 6636   0.852   1.769   0.385
  597SOL     OW 6637   0.188   0.323   2.858
  597SOL    HW1 6638   0.205   0.306   2.950
  597SOL    HW2 6639   0.106   0.277   2.839
  598SOL     OW 6640   0.029   0.422   2.445
  598SOL    HW1 6641   9.934   0.425   2.446
  598SOL    HW2 6642   0.050   0.371   2.367
  599SOL     OW 6643   0.564   1.299   3.066
  599SOL    HW1 6644   0.479   1.301   3.023
  599SOL    HW2 6645   0.578   1.389   3.096
  600SOL     OW 6646   1.555   1.605   2.600
  600SOL    HW1 6647   1.539   1.543   2.671
  600SOL    HW2 6648   1.510   1.568   2.525
  601SOL     OW 6649   1.146   0.722   2.554
  601SOL    HW1 6650   1.206   0.795   2.567
  601SOL    HW2 6651   1.082   0.730   2.625
  602SOL     OW 6652   0.746   1.137   2.935
  602SOL    HW1 6653   0.676   1.172   2.989
  602SOL    HW2 6654   0.784   1.213   2.891
  603SOL     OW 6655   0.816   0.752   3.683
  603SOL    HW1 6656   0.754   0.692   3.643
  603SOL    HW2 6657   0.857   0.798   3.610
  604SOL     OW 6658   0.683   0.981   2.511
  604SOL    HW1 6659   0.752   0.990   2.577
  604SOL    HW2 6660   0.612   1.036   2.543
  605SOL     OW 6661   0.733   1.205   3.667
  605SOL    HW1 6662   0.771   1.279   3.620
  605SOL    HW2 6663   0.638   1.216   3.657
  606SOL     OW 6664   0.334   1.415   2.926
  606SOL    HW1 6665   0.259   1.396   2.869
  606SOL    HW2 6666   0.392   1.469   2.872
  607SOL     OW 6667   1.477   1.548   3.290
  607SOL    HW1 6668   1.457   1.590   3.206
  607SOL    HW2 6669   1.393   1.540   3.334
  608SOL     OW 6670   1.575   0.471   2.628
  608SOL    HW1 6671   1.498   0.483   2.572
  608SOL    HW2 6672   1.559   0.529   2.702
  609SOL     OW 6673   0.220   1.662   2.269
  609SOL    HW1 6674   0.184   1.745   2.301
  609SOL    HW2 6675   0.309   1.684   2.241
  610SOL     OW 6676   1.191   1.287   3.581
  610SOL    HW1 6677   1.188   1.319   3.671
  610SOL    HW2 6678   1.122   1.221   3.577
  611SOL     OW 6679   0.309   1.406   2.346
  611SOL    HW1 6680   0.267   1.492   2.347
  611SOL    HW2 6681   0.260   1.354   2.409
  612SOL     OW 6682   0.265   1.104   2.775
  612SOL    HW1 6683   0.277   1.012   2.797
  612SOL    HW2 6684   0.185   1.130   2.821
  613SOL     OW 6685   0.621   1.751   3.351
  613SOL    HW1 6686   0.529   1.770   3.368
  613SOL    HW2 6687   0.656   1.833   3.315
  614SOL     OW 6688   0.719   0.916   2.010
  614SOL    HW1 6689   0.707   0.982   1.942
  614SOL    HW2 6690   0.736   0.967   2.089
  615SOL     OW 6691   1.597   9.976   3.363
  615SOL    HW1 6692   1.523   9.916   3.373
  615SOL    HW2 6693   1.588   0.036   3.437
  616SOL     OW 6694   0.139   0.676   2.441
  616SOL    HW1 6695   0.099   0.592   2.461
  616SOL    HW2 6696   0.116   0.732   2.515
  617SOL     OW 6697   1.843   1.720   2.164
  617SOL    HW1 6698   1.906   1.699   2.234
  617SOL    HW2 6699   1.856   1.813   2.148
  618SOL     OW 6700   0.003   1.623   2.103
  618SOL    HW1 6701   9.981   1.530   2.095
  618SOL    HW2 6702   0.076   1.625   2.165
  619SOL     OW 6703   1.711   0.859   2.436
  619SOL    HW1 6704   1.770   0.886   2.507
  619SOL    HW2 6705   1.689   0.941   2.392
  620SOL     OW 6706   1.670   1.104   2.299
  620SOL    HW1 6707   1.753   1.104   2.253
  620SOL    HW2 6708   1.677   1.178   2.360
  621SOL     OW 6709   0.111   0.760   3.463
  621SOL    HW1 6710   0.202   0.735   3.482
  621SOL    HW2 6711   0.108   0.854   3.479
  622SOL     OW 6712   0.626   1.374   2.603
  622SOL    HW1 6713   0.579   1.291   2.610
  622SOL    HW2 6714   0.606   1.404   2.514
  623SOL     OW 6715   1.274   1.257   3.231
  623SOL    HW1 6716   1.294   1.186   3.170
  623SOL    HW2 6717   1.319   1.233   3.312
  624SOL     OW 6718   0.850   0.034   2.415
  624SOL    HW1 6719   0.883   0.120   2.388
  624SOL    HW2 6720   0.758   0.034   2.390
  625SOL     OW 6721   0.175   0.901   3.119
  625SOL    HW1 6722   0.247   0.846   3.149
  625SOL    HW2 6723   0.186   0.906   3.024
  626SOL     OW 6724   1.547   0.976   2.052
  626SOL    HW1 6725   1.604   0.912   2.010
  626SOL    HW2 6726   1.597   1.008   2.127
  627SOL     OW 6727   1.263   1.865   3.491
  627SOL    HW1 6728   1.222   1.913   3.418
  627SOL    HW2 6729   1.252   1.773   3.468
  628SOL     OW 6730   1.463   1.445   2.809
  628SOL    HW1 6731   1.402   1.440   2.883
  628SOL    HW2 6732   1.469   1.355   2.777
  629SOL     OW 6733   1.631   1.816   2.422
  629SOL    HW1 6734   1.615   1.764   2.344
  629SOL    HW2 6735   1.614   1.756   2.495
  630SOL     OW 6736   0.598   0.707   2.153
  630SOL    HW1 6737   0.630   0.782   2.103
  630SOL    HW2 6738   0.548   0.746   2.225
  631SOL     OW 6739   1.267   0.394   2.809
  631SOL    HW1 6740   1.179   0.359   2.821
  631SOL    HW2 6741   1.324   0.332   2.855
  632SOL     OW 6742   1.569   1.681   2.190
  632SOL    HW1 6743   1.663   1.676   2.171
  632SOL    HW2 6744   1.528   1.674   2.104
  633SOL     OW 6745   0.814   0.588   3.380
  633SOL    HW1 6746   0.796   0.560   3.470
  633SOL    HW2 6747   0.730   0.580   3.335
  634SOL     OW 6748   1.435   0.527   3.522
  634SOL    HW1 6749   1.419   0.552   3.613
  634SOL    HW2 6750   1.462   0.436   3.527
  635SOL     OW 6751   0.953   0.880   3.469
  635SOL    HW1 6752   0.998   0.808   3.425
  635SOL    HW2 6753   0.907   0.925   3.400
  636SOL     OW 6754   0.994   0.423   3.090
  636SOL    HW1 6755   0.906   0.408   3.124
  636SOL    HW2 6756   0.989   0.399   2.997
  637SOL     OW 6757   1.094   0.718   2.278
  637SOL    HW1 6758   1.110   0.719   2.373
  637SOL    HW2 6759   1.007   0.679   2.269
  638SOL     OW 6760   0.076   0.839   2.654
  638SOL    HW1 6761   0.158   0.847   2.703
  638SOL    HW2 6762   0.007   0.854   2.719
  639SOL     OW 6763   0.181   1.989   3.437
  639SOL    HW1 6764   0.171   1.962   3.528
  639SOL    HW2 6765   0.163   2.083   3.437
  640SOL     OW 6766   0.848   0.352   2.054
  640SOL    HW1 6767   0.800   0.355   1.971
  640SOL    HW2 6768   0.931   0.310   2.033
  641SOL     OW 6769   1.759   0.576   3.655
  641SOL    HW1 6770   1.714   0.652   3.616
  641SOL    HW2 6771   1.745   0.506   3.591
  642SOL     OW 6772   1.409   1.134   2.444
  642SOL    HW1 6773   1.478   1.119   2.379
  642SOL    HW2 6774   1.346   1.190   2.400
  643SOL     OW 6775   0.568   0.195   2.778
  643SOL    HW1 6776   0.552   0.211   2.870
  643SOL    HW2 6777   0.571   0.283   2.739
  644SOL     OW 6778   0.994   1.461   2.327
  644SOL    HW1 6779   0.978   1.536   2.270
  644SOL    HW2 6780   0.953   1.485   2.411
  645SOL     OW 6781   0.392   1.812   2.725
  645SOL    HW1 6782   0.419   1.721   2.738
  645SOL    HW2 6783   0.460   1.863   2.768
  646SOL     OW 6784   1.238   1.531   3.415
  646SOL    HW1 6785   1.215   1.454   3.467
  646SOL    HW2 6786   1.155   1.559   3.376
  647SOL     OW 6787   0.489   1.316   3.593
  647SOL    HW1 6788   0.439   1.306   3.512
  647SOL    HW2 6789   0.454   1.396   3.633
  648SOL     OW 6790   1.144   1.775   2.068
  648SOL    HW1 6791   1.062   1.754   2.113
  648SOL    HW2 6792   1.165   1.696   2.019
  649SOL     OW 6793   1.650   1.418   1.941
  649SOL    HW1 6794   1.592   1.493   1.953
  649SOL    HW2 6795   1.590   1.344   1.927
  650SOL     OW 6796   0.468   1.760   2.188
  650SOL    HW1 6797   0.512   1.813   2.255
  650SOL    HW2 6798   0.538   1.713   2.144
  651SOL     OW 6799   1.441   0.175   2.268
  651SOL    HW1 6800   1.423   0.139   2.181
  651SOL    HW2 6801   1.506   0.244   2.252
  652SOL     OW 6802   0.298   1.807   3.107
  652SOL    HW1 6803   0.308   1.717   3.139
  652SOL    HW2 6804   0.205   1.814   3.085
  653SOL     OW 6805   0.977   1.672   2.746
  653SOL    HW1 6806   1.065   1.634   2.742
  653SOL    HW2 6807   0.926   1.620   2.685
  654SOL     OW 6808   0.402   0.712   2.368
  654SOL    HW1 6809   0.419   0.619   2.353
  654SOL    HW2 6810   0.309   0.716   2.391
  655SOL     OW 6811   1.499   0.259   3.587
  655SOL    HW1 6812   1.502   0.267   3.682
  655SOL    HW2 6813   1.422   0.204   3.570
  656SOL     OW 6814   0.582   0.074   1.983
  656SOL    HW1 6815   0.656   0.015   1.993
  656SOL    HW2 6816   0.572   0.085   1.889
  657SOL     OW 6817   0.788   0.225   3.626
  657SOL    HW1 6818   0.874   0.190   3.606
  657SOL    HW2 6819   0.745   0.156   3.677
  658SOL     OW 6820   0.865   1.537   3.038
  658SOL    HW1 6821   0.850   1.486   2.958
  658SOL    HW2 6822   0.932   1.487   3.085
  659SOL     OW 6823   1.331   0.582   3.264
  659SOL    HW1 6824   1.379   0.576   3.346
  659SOL    HW2 6825   1.372   0.654   3.217
  660SOL     OW 6826   0.816   1.376   2.809
  660SOL    HW1 6827   0.896   1.381   2.757
  660SOL    HW2 6828   0.745   1.376   2.745
  661SOL     OW 6829   0.900   0.511   2.759
  661SOL    HW1 6830   0.883   0.504   2.665
  661SOL    HW2 6831   0.934   0.425   2.784
  662SOL     OW 6832   0.598   0.059   2.311
  662SOL    HW1 6833   0.515   0.055   2.358
  662SOL    HW2 6834   0.595   0.142   2.264
  663SOL     OW 6835   1.462   1.224   1.923
  663SOL    HW1 6836   1.480   1.132   1.946
  663SOL    HW2 6837   1.373   1.240   1.956
  664SOL     OW 6838   0.344   9.999   2.099
  664SOL    HW1 6839   0.433   0.014   2.069
  664SOL    HW2 6840   0.347   0.014   2.194
  665SOL     OW 6841   0.947   0.270   2.318
  665SOL    HW1 6842   0.922   0.300   2.231
  665SOL    HW2 6843   1.041   0.285   2.323
  666SOL     OW 6844   1.060   0.687   3.300
  666SOL    HW1 6845   0.986   0.630   3.322
  666SOL    HW2 6846   1.132   0.626   3.285
  667SOL     OW 6847   1.236   1.588   2.674
  667SOL    HW1 6848   1.258   1.657   2.611
  667SOL    HW2 6849   1.319   1.566   2.715
  668SOL     OW 6850   0.469   1.145   2.590
  668SOL    HW1 6851   0.404   1.140   2.660
  668SOL    HW2 6852   0.422   1.116   2.511
  669SOL     OW 6853   1.266   1.796   2.481
  669SOL    HW1 6854   1.307   1.868   2.433
  669SOL    HW2 6855   1.184   1.833   2.515
  670SOL     OW 6856   1.071   0.518   1.881
  670SOL    HW1 6857   1.008   0.590   1.879
  670SOL    HW2 6858   1.112   0.524   1.967
  671SOL     OW 6859   0.100   0.612   3.226
  671SOL    HW1 6860   0.184   0.567   3.237
  671SOL    HW2 6861   0.085   0.656   3.310
  672SOL     OW 6862   0.508   0.209   3.046
  672SOL    HW1 6863   0.501   0.115   3.060
  672SOL    HW2 6864   0.420   0.243   3.064
  673SOL     OW 6865   0.873   0.477   2.490
  673SOL    HW1 6866   0.849   0.536   2.419
  673SOL    HW2 6867   0.894   0.394   2.448
  674SOL     OW 6868   0.958   0.067   2.676
  674SOL    HW1 6869   0.922   0.058   2.587
  674SOL    HW2 6870   0.960   9.978   2.710
  675SOL     OW 6871   1.496   1.193   2.703
  675SOL    HW1 6872   1.471   1.118   2.756
  675SOL    HW2 6873   1.458   1.175   2.617
  676SOL     OW 6874   1.470   0.601   2.866
  676SOL    HW1 6875   1.387   0.554   2.854
  676SOL    HW2 6876   1.445   0.686   2.901
  677SOL     OW 6877   1.866   0.787   2.164
  677SOL    HW1 6878   1.829   0.740   2.239
  677SOL    HW2 6879   1.806   0.767   2.092
  678SOL     OW 6880   0.463   1.452   1.972
  678SOL    HW1 6881   0.382   1.421   2.013
  678SOL    HW2 6882   0.514   1.372   1.958
  679SOL     OW 6883   1.696   1.285   2.513
  679SOL    HW1 6884   1.788   1.263   2.531
  679SOL    HW2 6885   1.649   1.251   2.589
  680SOL     OW 6886   1.483   0.638   1.931
  680SOL    HW1 6887   1.449   0.647   2.020
  680SOL    HW2 6888   1.570   0.678   1.934
  681SOL     OW 6889   0.587   0.291   2.154
  681SOL    HW1 6890   0.573   0.225   2.086
  681SOL    HW2 6891   0.676   0.323   2.138
  682SOL     OW 6892   1.748   1.243   3.425
  682SOL    HW1 6893   1.835   1.211   3.404
  682SOL    HW2 6894   1.762   1.332   3.458
  683SOL     OW 6895   1.025   1.402   3.223
  683SOL    HW1 6896   0.953   1.341   3.235
  683SOL    HW2 6897   1.103   1.347   3.224
  684SOL     OW 6898   1.596   1.616   3.537
  684SOL    HW1 6899   1.552   1.604   3.453
  684SOL    HW2 6900   1.684   1.581   3.523
  685SOL     OW 6901   1.104   1.287   2.931
  685SOL    HW1 6902   1.068   1.199   2.938
  685SOL    HW2 6903   1.081   1.316   2.842
  686SOL     OW 6904   0.860   0.180   3.287
  686SOL    HW1 6905   0.869   0.149   3.197
  686SOL    HW2 6906   0.950   0.196   3.316
  687SOL     OW 6907   0.992   1.091   3.642
  687SOL    HW1 6908   0.905   1.126   3.657
  687SOL    HW2 6909   0.979   1.019   3.580
  688SOL     OW 6910   0.757   1.063   2.251
  688SOL    HW1 6911   0.729   1.032   2.337
  688SOL    HW2 6912   0.846   1.030   2.240
  689SOL     OW 6913   0.421   0.772   3.156
  689SOL    HW1 6914   0.478   0.806   3.225
  689SOL    HW2 6915   0.408   0.680   3.179
  690SOL     OW 6916   1.256   0.349   3.136
  690SOL    HW1 6917   1.292   0.428   3.178
  690SOL    HW2 6918   1.166   0.373   3.112
  691SOL     OW 6919   0.041   1.534   3.210
  691SOL    HW1 6920   0.018   1.564   3.298
  691SOL    HW2 6921   0.137   1.542   3.207
  692SOL     OW 6922   0.330   1.033   2.367
  692SOL    HW1 6923   0.312   1.049   2.274
  692SOL    HW2 6924   0.348   0.939   2.372
  693SOL     OW 6925   0.560   0.486   2.739
  693SOL    HW1 6926   0.578   0.550   2.670
  693SOL    HW2 6927   0.613   0.515   2.813
  694SOL     OW 6928   1.247   1.335   2.310
  694SOL    HW1 6929   1.301   1.410   2.335
  694SOL    HW2 6930   1.157   1.364   2.324
  695SOL     OW 6931   1.291   1.460   3.032
  695SOL    HW1 6932   1.303   1.414   3.115
  695SOL    HW2 6933   1.217   1.416   2.990
  696SOL     OW 6934   1.609   0.642   2.286
  696SOL    HW1 6935   1.638   0.707   2.351
  696SOL    HW2 6936   1.530   0.681   2.249
  697SOL     OW 6937   0.330   1.536   3.170
  697SOL    HW1 6938   0.319   1.490   3.086
  697SOL    HW2 6939   0.424   1.546   3.180
  698SOL     OW 6940   0.398   0.747   3.481
  698SOL    HW1 6941   0.471   0.795   3.443
  698SOL    HW2 6942   0.399   0.662   3.436
  699SOL     OW 6943   1.643   0.827   3.556
  699SOL    HW1 6944   1.547   0.824   3.561
  699SOL    HW2 6945   1.661   0.859   3.467
  700SOL     OW 6946   1.041   0.117   3.585
  700SOL    HW1 6947   1.070   0.161   3.505
  700SOL    HW2 6948   1.062   0.025   3.571
  701SOL     OW 6949   0.569   0.849   2.934
  701SOL    HW1 6950   0.607   0.934   2.954
  701SOL    HW2 6951   0.519   0.826   3.013
  702SOL     OW 6952   1.173   0.497   2.130
  702SOL    HW1 6953   1.198   0.434   2.199
  702SOL    HW2 6954   1.161   0.579   2.177
  703SOL     OW 6955   0.262   0.307   3.126
  703SOL    HW1 6956   0.288   0.395   3.153
  703SOL    HW2 6957   0.231   0.265   3.207
  704SOL     OW 6958   0.008   1.270   3.133
  704SOL    HW1 6959   0.064   1.225   3.198
  704SOL    HW2 6960   0.014   1.362   3.156
  705SOL     OW 6961   0.719   0.611   2.945
  705SOL    HW1 6962   0.781   0.597   2.874
  705SOL    HW2 6963   0.675   0.693   2.923
  706SOL     OW 6964   1.752   0.992   3.757
  706SOL    HW1 6965   1.721   0.936   3.685
  706SOL    HW2 6966   1.688   0.978   3.827
  707SOL     OW 6967   0.330   0.110   2.379
  707SOL    HW1 6968   0.320   0.170   2.452
  707SOL    HW2 6969   0.271   0.037   2.400
  708SOL     OW 6970   1.632   0.373   2.211
  708SOL    HW1 6971   1.720   0.354   2.243
  708SOL    HW2 6972   1.617   0.464   2.235
  709SOL     OW 6973   0.989   0.766   2.792
  709SOL    HW1 6974   0.993   0.780   2.887
  709SOL    HW2 6975   0.964   0.675   2.783
  710SOL     OW 6976   0.993   1.568   3.593
  710SOL    HW1 6977   0.988   1.617   3.511
  710SOL    HW2 6978   0.926   1.500   3.584
  711SOL     OW 6979   1.842   1.498   3.477
  711SOL    HW1 6980   1.865   1.529   3.389
  711SOL    HW2 6981   1.921   1.512   3.529
  712SOL     OW 6982   0.354   0.921   3.696
  712SOL    HW1 6983   0.411   0.986   3.654
  712SOL    HW2 6984   0.359   0.844   3.638
  713SOL     OW 6985   1.601   0.246   1.966
  713SOL    HW1 6986   1.548   0.170   1.989
  713SOL    HW2 6987   1.608   0.296   2.047
  714SOL     OW 6988   1.322   0.861   1.854
  714SOL    HW1 6989   1.356   0.776   1.884
  714SOL    HW2 6990   1.393   0.898   1.802
  715SOL     OW 6991   1.053   1.376   2.675
  715SOL    HW1 6992   1.071   1.295   2.627
  715SOL    HW2 6993   1.124   1.435   2.649
  716SOL     OW 6994   0.305   0.837   2.829
  716SOL    HW1 6995   0.398   0.850   2.848
  716SOL    HW2 6996   0.294   0.742   2.825
  717SOL     OW 6997   0.299   0.565   2.819
  717SOL    HW1 6998   0.257   0.480   2.829
  717SOL    HW2 6999   0.387   0.544   2.785
  718SOL     OW 7000   1.165   0.441   3.513
  718SOL    HW1 7001   1.116   0.485   3.582
  718SOL    HW2 7002   1.249   0.485   3.511
  719SOL     OW 7003   1.126   0.230   3.352
  719SOL    HW1 7004   1.136   0.309   3.404
  719SOL    HW2 7005   1.176   0.247   3.271
  720SOL     OW 7006   9.967   1.262   2.082
  720SOL    HW1 7007   9.911   1.255   2.004
  720SOL    HW2 7008   9.998   1.173   2.097
  721SOL     OW 7009   0.140   1.895   2.798
  721SOL    HW1 7010   0.078   1.822   2.808
  721SOL    HW2 7011   0.223   1.853   2.777
  722SOL     OW 7012   0.505   1.561   2.768
  722SOL    HW1 7013   0.580   1.619   2.782
  722SOL    HW2 7014   0.538   1.493   2.710
  723SOL     OW 7015   0.929   0.782   3.067
  723SOL    HW1 7016   0.984   0.755   3.141
  723SOL    HW2 7017   0.862   0.715   3.061
  724SOL     OW 7018   0.052   0.646   2.955
  724SOL    HW1 7019   0.136   0.619   2.917
  724SOL    HW2 7020   0.062   0.629   3.048
  725SOL     OW 7021   1.368   0.900   3.531
  725SOL    HW1 7022   1.390   0.991   3.512
  725SOL    HW2 7023   1.294   0.880   3.474
  726SOL     OW 7024   0.846   0.588   2.226
  726SOL    HW1 7025   0.853   0.518   2.162
  726SOL    HW2 7026   0.763   0.630   2.207
  727SOL     OW 7027   1.687   0.607   3.037
  727SOL    HW1 7028   1.675   0.536   3.100
  727SOL    HW2 7029   1.612   0.600   2.978
  728SOL     OW 7030   0.715   0.387   3.115
  728SOL    HW1 7031   0.649   0.328   3.079
  728SOL    HW2 7032   0.701   0.470   3.069
  729SOL     OW 7033   0.995   1.666   3.338
  729SOL    HW1 7034   0.971   1.598   3.274
  729SOL    HW2 7035   0.956   1.746   3.304
  730SOL     OW 7036   0.183   1.121   3.288
  730SOL    HW1 7037   0.159   1.087   3.374
  730SOL    HW2 7038   0.183   1.043   3.232
  731SOL     OW 7039   1.383   0.760   2.166
  731SOL    HW1 7040   1.294   0.770   2.201
  731SOL    HW2 7041   1.401   0.844   2.124
  732SOL     OW 7042   1.860   1.683   2.997
  732SOL    HW1 7043   1.855   1.714   2.906
  732SOL    HW2 7044   1.793   1.615   3.002
  733SOL     OW 7045   1.295   1.748   2.995
  733SOL    HW1 7046   1.362   1.757   2.927
  733SOL    HW2 7047   1.287   1.653   3.008
  734SOL     OW 7048   0.004   1.125   2.902
  734SOL    HW1 7049   0.009   1.172   2.985
  734SOL    HW2 7050   9.951   1.181   2.845
  735SOL     OW 7051   0.632   1.645   3.613
  735SOL    HW1 7052   0.544   1.616   3.636
  735SOL    HW2 7053   0.621   1.693   3.531
  736SOL     OW 7054   1.803   0.131   2.406
  736SOL    HW1 7055   1.835   0.150   2.318
  736SOL    HW2 7056   1.729   0.073   2.393
  737SOL     OW 7057   1.391   1.568   2.375
  737SOL    HW1 7058   1.446   1.599   2.303
  737SOL    HW2 7059   1.337   1.644   2.399
  738SOL     OW 7060   0.195   1.883   3.708
  738SOL    HW1 7061   0.198   1.797   3.665
  738SOL    HW2 7062   0.237   1.868   3.793
  739SOL     OW 7063   1.295   0.940   2.613
  739SOL    HW1 7064   1.340   0.943   2.697
  739SOL    HW2 7065   1.349   0.995   2.556
  740SOL     OW 7066   0.783   1.267   3.253
  740SOL    HW1 7067   0.762   1.320   3.329
  740SOL    HW2 7068   0.706   1.275   3.196
  741SOL     OW 7069   0.662   1.639   2.028
  741SOL    HW1 7070   0.691   1.650   1.938
  741SOL    HW2 7071   0.597   1.569   2.024
  742SOL     OW 7072   1.762   1.827   3.271
  742SOL    HW1 7073   1.724   1.751   3.227
  742SOL    HW2 7074   1.687   1.882   3.294
  743SOL     OW 7075   1.831   0.161   2.808
  743SOL    HW1 7076   1.867   0.091   2.753
  743SOL    HW2 7077   1.742   0.175   2.775
  744SOL     OW 7078   0.276   0.330   2.550
  744SOL    HW1 7079   0.188   0.363   2.530
  744SOL    HW2 7080   0.273   0.310   2.644
  745SOL     OW 7081   1.207   1.550   1.918
  745SOL    HW1 7082   1.209   1.461   1.954
  745SOL    HW2 7083   1.137   1.547   1.852
  746SOL     OW 7084   0.834   0.993   3.251
  746SOL    HW1 7085   0.863   0.963   3.165
  746SOL    HW2 7086   0.820   1.087   3.241
  747SOL     OW 7087   0.997   0.963   2.177
  747SOL    HW1 7088   1.045   0.987   2.098
  747SOL    HW2 7089   1.039   0.882   2.208
  748SOL     OW 7090   1.460   1.667   1.936
  748SOL    HW1 7091   1.375   1.625   1.925
  748SOL    HW2 7092   1.496   1.670   1.847
  749SOL     OW 7093   0.366   1.317   3.352
  749SOL    HW1 7094   0.339   1.395   3.303
  749SOL    HW2 7095   0.303   1.250   3.327
  750SOL     OW 7096   1.597   1.313   3.202
  750SOL    HW1 7097   1.653   1.287   3.275
  750SOL    HW2 7098   1.549   1.388   3.234
  751SOL     OW 7099   1.082   1.121   2.591
  751SOL    HW1 7100   1.004   1.076   2.623
  751SOL    HW2 7101   1.150   1.053   2.593
  752SOL     OW 7102   1.013   0.269   2.851
  752SOL    HW1 7103   1.001   0.212   2.775
  752SOL    HW2 7104   0.990   0.214   2.926
  753SOL     OW 7105   0.585   1.463   2.350
  753SOL    HW1 7106   0.635   1.421   2.280
  753SOL    HW2 7107   0.494   1.440   2.332
  754SOL     OW 7108   1.739   0.392   3.219
  754SOL    HW1 7109   1.822   0.438   3.213
  754SOL    HW2 7110   1.753   0.310   3.171
  755SOL     OW 7111   0.234   1.343   2.090
  755SOL    HW1 7112   0.143   1.315   2.098
  755SOL    HW2 7113   0.263   1.356   2.180
  756SOL     OW 7114   0.125   1.025   3.543
  756SOL    HW1 7115   0.078   1.105   3.565
  756SOL    HW2 7116   0.179   1.006   3.619
  757SOL     OW 7117   1.212   1.294   2.033
  757SOL    HW1 7118   1.172   1.208   2.016
  757SOL    HW2 7119   1.221   1.298   2.128
  758SOL     OW 7120   0.616   0.847   3.344
  758SOL    HW1 7121   0.691   0.900   3.317
  758SOL    HW2 7122   0.645   0.756   3.330
  759SOL     OW 7123   1.491   1.788   2.805
  759SOL    HW1 7124   1.527   1.875   2.789
  759SOL    HW2 7125   1.520   1.735   2.731
  760SOL     OW 7126   0.706   0.487   3.620
  760SOL    HW1 7127   0.636   0.494   3.685
  760SOL    HW2 7128   0.750   0.404   3.641
  761SOL     OW 7129   1.466   1.157   3.481
  761SOL    HW1 7130   1.419   1.204   3.550
  761SOL    HW2 7131   1.553   1.196   3.480
  762SOL     OW 7132   0.366   1.783   3.438
  762SOL    HW1 7133   0.294   1.840   3.410
  762SOL    HW2 7134   0.323   1.716   3.492
  763SOL     OW 7135   1.219   0.324   2.339
  763SOL    HW1 7136   1.289   0.260   2.328
  763SOL    HW2 7137   1.246   0.376   2.414
  764SOL     OW 7138   0.596   0.711   2.570
  764SOL    HW1 7139   0.640   0.794   2.557
  764SOL    HW2 7140   0.525   0.710   2.505
  765SOL     OW 7141   1.745   0.345   3.491
  765SOL    HW1 7142   1.731   0.362   3.398
  765SOL    HW2 7143   1.663   0.305   3.521
  766SOL     OW 7144   1.655   0.988   3.317
  766SOL    HW1 7145   1.700   1.068   3.346
  766SOL    HW2 7146   1.562   1.009   3.325
  767SOL     OW 7147   0.783   1.377   1.915
  767SOL    HW1 7148   0.787   1.373   2.010
  767SOL    HW2 7149   0.835   1.454   1.892
  768SOL     OW 7150   0.704   1.744   2.776
  768SOL    HW1 7151   0.681   1.833   2.803
  768SOL    HW2 7152   0.797   1.736   2.795
  769SOL     OW 7153   0.864   1.000   2.717
  769SOL    HW1 7154   0.905   0.917   2.743
  769SOL    HW2 7155   0.822   1.032   2.797
  770SOL     OW 7156   1.132   1.039   1.944
  770SOL    HW1 7157   1.084   1.058   1.864
  770SOL    HW2 7158   1.201   0.978   1.917
  771SOL     OW 7159   1.852   1.541   2.717
  771SOL    HW1 7160   1.786   1.508   2.657
  771SOL    HW2 7161   1.886   1.462   2.760
  772SOL     OW 7162   0.163   1.219   2.495
  772SOL    HW1 7163   0.085   1.175   2.529
  772SOL    HW2 7164   0.215   1.149   2.456
  773SOL     OW 7165   0.728   1.418   3.487
  773SOL    HW1 7166   0.643   1.376   3.501
  773SOL    HW2 7167   0.715   1.509   3.514
  774SOL     OW 7168   1.785   0.152   3.087
  774SOL    HW1 7169   1.713   0.088   3.088
  774SOL    HW2 7170   1.813   0.154   2.996
  775SOL     OW 7171   0.416   0.442   2.328
  775SOL    HW1 7172   0.473   0.376   2.289
  775SOL    HW2 7173   0.379   0.400   2.406
  776SOL     OW 7174   1.664   1.497   3.005
  776SOL    HW1 7175   1.604   1.486   2.931
  776SOL    HW2 7176   1.650   1.419   3.058
  777SOL     OW 7177   0.831   1.565   2.533
  777SOL    HW1 7178   0.778   1.636   2.495
  777SOL    HW2 7179   0.767   1.497   2.555
  778SOL     OW 7180   1.426   0.214   2.962
  778SOL    HW1 7181   1.456   0.132   3.000
  778SOL    HW2 7182   1.373   0.255   3.031
  779SOL     OW 7183   0.924   0.075   3.034
  779SOL    HW1 7184   0.847   0.043   2.987
  779SOL    HW2 7185   0.977   9.996   3.049
  780SOL     OW 7186   0.779   1.333   2.188
  780SOL    HW1 7187   0.768   1.240   2.208
  780SOL    HW2 7188   0.857   1.359   2.238
  781SOL     OW 7189   0.615   1.552   3.160
  781SOL    HW1 7190   0.623   1.616   3.231
  781SOL    HW2 7191   0.698   1.559   3.113
  782SOL     OW 7192   1.382   0.057   2.018
  782SOL    HW1 7193   1.348   0.028   1.933
  782SOL    HW2 7194   1.360   9.986   2.078
  783SOL     OW 7195   1.299   0.487   2.550
  783SOL    HW1 7196   1.248   0.568   2.545
  783SOL    HW2 7197   1.284   0.454   2.638
  784SOL     OW 7198   1.573   0.212   2.724
  784SOL    HW1 7199   1.519   0.218   2.802
  784SOL    HW2 7200   1.572   0.300   2.687
  785SOL     OW 7201   0.068   1.008   2.102
  785SOL    HW1 7202   0.141   0.951   2.077
  785SOL    HW2 7203   9.996   0.947   2.118
  786SOL     OW 7204   0.901   1.683   2.182
  786SOL    HW1 7205   0.819   1.665   2.137
  786SOL    HW2 7206   0.878   1.746   2.250
  787SOL     OW 7207   0.245   0.570   3.724
  787SOL    HW1 7208   0.224   0.541   3.812
  787SOL    HW2 7209   0.222   0.496   3.668
  788SOL     OW 7210   0.194   0.272   4.856
  788SOL    HW1 7211   0.245   0.233   4.927
  788SOL    HW2 7212   0.219   0.223   4.778
  789SOL     OW 7213   1.560   1.531   4.424
  789SOL    HW1 7214   1.514   1.493   4.499
  789SOL    HW2 7215   1.492   1.544   4.358
  790SOL     OW 7216   1.094   0.698   4.425
  790SOL    HW1 7217   1.116   0.774   4.479
  790SOL    HW2 7218   1.039   0.644   4.482
  791SOL     OW 7219   1.835   0.593   3.917
  791SOL    HW1 7220   1.798   0.591   3.829
  791SOL    HW2 7221   1.788   0.524   3.964
  792SOL     OW 7222   0.648   1.166   4.761
  792SOL    HW1 7223   0.664   1.235   4.826
  792SOL    HW2 7224   0.580   1.203   4.704
  793SOL     OW 7225   0.966   0.757   5.617
  793SOL    HW1 7226   0.930   0.804   5.693
  793SOL    HW2 7227   0.900   0.769   5.549
  794SOL     OW 7228   0.697   0.986   4.388
  794SOL    HW1 7229   0.757   0.987   4.462
  794SOL    HW2 7230   0.629   1.050   4.411
  795SOL     OW 7231   0.730   1.155   5.555
  795SOL    HW1 7232   0.766   1.231   5.600
  795SOL    HW2 7233   0.649   1.187   5.515
  796SOL     OW 7234   1.467   1.510   5.178
  796SOL    HW1 7235   1.393   1.569   5.193
  796SOL    HW2 7236   1.426   1.424   5.164
  797SOL     OW 7237   1.625   0.442   4.504
  797SOL    HW1 7238   1.590   0.452   4.416
  797SOL    HW2 7239   1.719   0.451   4.494
  798SOL     OW 7240   1.144   1.320   5.444
  798SOL    HW1 7241   1.173   1.316   5.535
  798SOL    HW2 7242   1.084   1.246   5.435
  799SOL     OW 7243   0.271   1.083   4.564
  799SOL    HW1 7244   0.278   0.991   4.588
  799SOL    HW2 7245   0.230   1.125   4.640
  800SOL     OW 7246   0.640   1.797   5.188
  800SOL    HW1 7247   0.548   1.771   5.195
  800SOL    HW2 7248   0.640   1.892   5.200
  801SOL     OW 7249   0.742   1.037   3.884
  801SOL    HW1 7250   0.735   1.105   3.816
  801SOL    HW2 7251   0.705   1.077   3.962
  802SOL     OW 7252   1.609   0.071   5.266
  802SOL    HW1 7253   1.548   0.036   5.202
  802SOL    HW2 7254   1.560   0.139   5.312
  803SOL     OW 7255   0.168   0.622   4.285
  803SOL    HW1 7256   0.174   0.527   4.300
  803SOL    HW2 7257   0.133   0.658   4.366
  804SOL     OW 7258   1.822   1.734   4.037
  804SOL    HW1 7259   1.801   1.734   4.130
  804SOL    HW2 7260   1.841   1.826   4.016
  805SOL     OW 7261   1.643   1.126   4.117
  805SOL    HW1 7262   1.619   1.069   4.045
  805SOL    HW2 7263   1.562   1.138   4.166
  806SOL     OW 7264   0.235   0.747   5.318
  806SOL    HW1 7265   0.199   0.730   5.404
  806SOL    HW2 7266   0.239   0.842   5.311
  807SOL     OW 7267   0.610   1.430   4.394
  807SOL    HW1 7268   0.569   1.344   4.400
  807SOL    HW2 7269   0.545   1.490   4.430
  808SOL     OW 7270   1.350   1.271   5.105
  808SOL    HW1 7271   1.353   1.196   5.045
  808SOL    HW2 7272   1.363   1.232   5.191
  809SOL     OW 7273   0.845   0.070   4.283
  809SOL    HW1 7274   0.855   0.163   4.261
  809SOL    HW2 7275   0.755   0.050   4.260
  810SOL     OW 7276   0.170   0.912   4.984
  810SOL    HW1 7277   0.253   0.865   4.992
  810SOL    HW2 7278   0.170   0.946   4.895
  811SOL     OW 7279   1.516   0.968   3.922
  811SOL    HW1 7280   1.471   0.919   3.854
  811SOL    HW2 7281   1.468   0.947   4.002
  812SOL     OW 7282   1.301   1.857   5.209
  812SOL    HW1 7283   1.228   1.917   5.222
  812SOL    HW2 7284   1.262   1.770   5.211
  813SOL     OW 7285   1.453   1.396   4.647
  813SOL    HW1 7286   1.386   1.419   4.711
  813SOL    HW2 7287   1.433   1.306   4.622
  814SOL     OW 7288   1.683   1.767   4.278
  814SOL    HW1 7289   1.612   1.760   4.214
  814SOL    HW2 7290   1.657   1.708   4.349
  815SOL     OW 7291   0.603   0.785   4.010
  815SOL    HW1 7292   0.538   0.842   3.968
  815SOL    HW2 7293   0.554   0.738   4.077
  816SOL     OW 7294   1.285   0.391   4.657
  816SOL    HW1 7295   1.195   0.359   4.653
  816SOL    HW2 7296   1.328   0.335   4.722
  817SOL     OW 7297   1.543   1.729   4.030
  817SOL    HW1 7298   1.636   1.719   4.012
  817SOL    HW2 7299   1.500   1.714   3.945
  818SOL     OW 7300   1.474   0.557   5.385
  818SOL    HW1 7301   1.433   0.572   5.471
  818SOL    HW2 7302   1.477   0.462   5.377
  819SOL     OW 7303   0.995   0.896   5.287
  819SOL    HW1 7304   1.010   0.806   5.260
  819SOL    HW2 7305   0.926   0.927   5.229
  820SOL     OW 7306   0.939   0.368   5.036
  820SOL    HW1 7307   0.901   0.409   5.114
  820SOL    HW2 7308   0.888   0.404   4.963
  821SOL     OW 7309   1.078   0.729   4.153
  821SOL    HW1 7310   1.079   0.720   4.248
  821SOL    HW2 7311   0.992   0.699   4.126
  822SOL     OW 7312   0.066   0.759   4.519
  822SOL    HW1 7313   0.150   0.780   4.560
  822SOL    HW2 7314   0.004   0.821   4.556
  823SOL     OW 7315   0.154   1.888   5.327
  823SOL    HW1 7316   0.140   1.846   5.412
  823SOL    HW2 7317   0.069   1.925   5.303
  824SOL     OW 7318   0.888   0.361   3.940
  824SOL    HW1 7319   0.959   0.313   3.898
  824SOL    HW2 7320   0.810   0.311   3.921
  825SOL     OW 7321   1.728   0.577   5.496
  825SOL    HW1 7322   1.639   0.586   5.464
  825SOL    HW2 7323   1.757   0.491   5.463
  826SOL     OW 7324   1.377   1.117   4.206
  826SOL    HW1 7325   1.335   1.050   4.152
  826SOL    HW2 7326   1.328   1.197   4.188
  827SOL     OW 7327   1.002   1.464   4.207
  827SOL    HW1 7328   0.986   1.536   4.145
  827SOL    HW2 7329   0.956   1.490   4.287
  828SOL     OW 7330   1.769   1.053   4.495
  828SOL    HW1 7331   1.687   1.061   4.446
  828SOL    HW2 7332   1.745   1.075   4.585
  829SOL     OW 7333   1.209   1.595   5.228
  829SOL    HW1 7334   1.168   1.579   5.313
  829SOL    HW2 7335   1.157   1.543   5.167
  830SOL     OW 7336   0.295   0.884   3.966
  830SOL    HW1 7337   0.311   0.892   3.872
  830SOL    HW2 7338   0.270   0.792   3.978
  831SOL     OW 7339   1.432   0.723   4.414
  831SOL    HW1 7340   1.375   0.650   4.389
  831SOL    HW2 7341   1.456   0.705   4.505
  832SOL     OW 7342   0.499   1.273   5.452
  832SOL    HW1 7343   0.455   1.266   5.367
  832SOL    HW2 7344   0.428   1.290   5.514
  833SOL     OW 7345   1.192   1.758   3.990
  833SOL    HW1 7346   1.103   1.743   4.023
  833SOL    HW2 7347   1.195   1.707   3.909
  834SOL     OW 7348   0.311   0.363   5.253
  834SOL    HW1 7349   0.244   0.411   5.205
  834SOL    HW2 7350   0.330   0.287   5.198
  835SOL     OW 7351   1.625   1.431   3.801
  835SOL    HW1 7352   1.578   1.511   3.779
  835SOL    HW2 7353   1.560   1.361   3.790
  836SOL     OW 7354   0.559   1.759   4.007
  836SOL    HW1 7355   0.563   1.809   4.088
  836SOL    HW2 7356   0.467   1.762   3.981
  837SOL     OW 7357   1.388   0.171   4.071
  837SOL    HW1 7358   1.353   0.109   4.007
  837SOL    HW2 7359   1.449   0.119   4.124
  838SOL     OW 7360   0.227   1.791   4.852
  838SOL    HW1 7361   0.305   1.765   4.803
  838SOL    HW2 7362   0.155   1.774   4.792
  839SOL     OW 7363   0.964   1.669   4.625
  839SOL    HW1 7364   1.054   1.637   4.612
  839SOL    HW2 7365   0.915   1.630   4.553
  840SOL     OW 7366   0.444   0.663   4.203
  840SOL    HW1 7367   0.459   0.569   4.215
  840SOL    HW2 7368   0.349   0.674   4.216
  841SOL     OW 7369   1.492   0.274   5.424
  841SOL    HW1 7370   1.487   0.270   5.519
  841SOL    HW2 7371   1.404   0.251   5.394
  842SOL     OW 7372   0.668   0.030   3.782
  842SOL    HW1 7373   0.691   9.966   3.850
  842SOL    HW2 7374   0.637   0.106   3.831
  843SOL     OW 7375   1.378   0.584   5.116
  843SOL    HW1 7376   1.402   0.577   5.209
  843SOL    HW2 7377   1.370   0.678   5.101
  844SOL     OW 7378   0.982   0.523   4.606
  844SOL    HW1 7379   0.905   0.513   4.549
  844SOL    HW2 7380   0.998   0.436   4.640
  845SOL     OW 7381   0.591   0.004   4.197
  845SOL    HW1 7382   0.539   9.940   4.245
  845SOL    HW2 7383   0.528   0.070   4.168
  846SOL     OW 7384   1.442   1.227   3.782
  846SOL    HW1 7385   1.450   1.143   3.827
  846SOL    HW2 7386   1.353   1.256   3.801
  847SOL     OW 7387   0.928   0.327   4.210
  847SOL    HW1 7388   0.902   0.337   4.119
  847SOL    HW2 7389   1.023   0.332   4.209
  848SOL     OW 7390   1.025   0.638   5.195
  848SOL    HW1 7391   0.935   0.606   5.195
  848SOL    HW2 7392   1.075   0.570   5.240
  849SOL     OW 7393   1.229   1.620   4.544
  849SOL    HW1 7394   1.235   1.678   4.467
  849SOL    HW2 7395   1.303   1.647   4.599
  850SOL     OW 7396   0.489   1.169   4.414
  850SOL    HW1 7397   0.420   1.149   4.477
  850SOL    HW2 7398   0.450   1.155   4.329
  851SOL     OW 7399   1.244   1.802   4.339
  851SOL    HW1 7400   1.279   1.860   4.272
  851SOL    HW2 7401   1.166   1.848   4.372
  852SOL     OW 7402   1.053   0.589   3.713
  852SOL    HW1 7403   0.968   0.633   3.719
  852SOL    HW2 7404   1.073   0.564   3.803
  853SOL     OW 7405   0.114   0.537   5.184
  853SOL    HW1 7406   0.092   0.543   5.091
  853SOL    HW2 7407   0.147   0.623   5.207
  854SOL     OW 7408   0.794   0.469   4.417
  854SOL    HW1 7409   0.720   0.518   4.381
  854SOL    HW2 7410   0.826   0.416   4.344
  855SOL     OW 7411   1.007   0.033   4.502
  855SOL    HW1 7412   0.947   0.047   4.429
  855SOL    HW2 7413   0.970   9.959   4.550
  856SOL     OW 7414   1.451   1.116   4.577
  856SOL    HW1 7415   1.415   1.039   4.621
  856SOL    HW2 7416   1.405   1.120   4.493
  857SOL     OW 7417   1.469   0.608   4.665
  857SOL    HW1 7418   1.394   0.549   4.679
  857SOL    HW2 7419   1.536   0.552   4.626
  858SOL     OW 7420   1.889   0.784   4.109
  858SOL    HW1 7421   1.861   0.726   4.180
  858SOL    HW2 7422   1.867   0.736   4.029
  859SOL     OW 7423   1.746   1.370   4.288
  859SOL    HW1 7424   1.809   1.357   4.359
  859SOL    HW2 7425   1.675   1.421   4.327
  860SOL     OW 7426   1.378   0.554   3.792
  860SOL    HW1 7427   1.298   0.546   3.844
  860SOL    HW2 7428   1.429   0.477   3.815
  861SOL     OW 7429   0.624   0.261   3.927
  861SOL    HW1 7430   0.558   0.235   3.992
  861SOL    HW2 7431   0.586   0.337   3.884
  862SOL     OW 7432   1.717   1.236   5.282
  862SOL    HW1 7433   1.761   1.152   5.290
  862SOL    HW2 7434   1.781   1.300   5.315
  863SOL     OW 7435   1.067   1.401   5.089
  863SOL    HW1 7436   0.979   1.368   5.105
  863SOL    HW2 7437   1.125   1.329   5.114
  864SOL     OW 7438   1.636   1.603   5.386
  864SOL    HW1 7439   1.577   1.577   5.315
  864SOL    HW2 7440   1.716   1.553   5.371
  865SOL     OW 7441   1.124   1.196   4.844
  865SOL    HW1 7442   1.032   1.183   4.865
  865SOL    HW2 7443   1.123   1.241   4.759
  866SOL     OW 7444   1.674   1.141   4.742
  866SOL    HW1 7445   1.645   1.129   4.832
  866SOL    HW2 7446   1.593   1.144   4.691
  867SOL     OW 7447   0.913   0.091   5.057
  867SOL    HW1 7448   0.948   0.064   4.972
  867SOL    HW2 7449   0.920   0.186   5.056
  868SOL     OW 7450   0.986   1.098   5.470
  868SOL    HW1 7451   0.894   1.110   5.490
  868SOL    HW2 7452   0.987   1.025   5.407
  869SOL     OW 7453   0.650   1.102   4.136
  869SOL    HW1 7454   0.554   1.103   4.139
  869SOL    HW2 7455   0.676   1.051   4.213
  870SOL     OW 7456   0.430   0.808   5.019
  870SOL    HW1 7457   0.459   0.851   5.099
  870SOL    HW2 7458   0.467   0.720   5.025
  871SOL     OW 7459   1.229   0.360   5.028
  871SOL    HW1 7460   1.265   0.446   5.049
  871SOL    HW2 7461   1.134   0.373   5.027
  872SOL     OW 7462   0.076   1.576   5.059
  872SOL    HW1 7463   0.075   1.646   4.993
  872SOL    HW2 7464   0.167   1.547   5.061
  873SOL     OW 7465   0.373   1.091   4.158
  873SOL    HW1 7466   0.294   1.121   4.203
  873SOL    HW2 7467   0.344   1.019   4.103
  874SOL     OW 7468   0.564   0.551   4.621
  874SOL    HW1 7469   0.578   0.619   4.555
  874SOL    HW2 7470   0.619   0.478   4.594
  875SOL     OW 7471   1.246   1.354   4.141
  875SOL    HW1 7472   1.298   1.429   4.169
  875SOL    HW2 7473   1.157   1.376   4.168
  876SOL     OW 7474   1.294   1.449   4.875
  876SOL    HW1 7475   1.307   1.406   4.959
  876SOL    HW2 7476   1.214   1.411   4.840
  877SOL     OW 7477   1.591   0.559   4.246
  877SOL    HW1 7478   1.537   0.629   4.283
  877SOL    HW2 7479   1.681   0.583   4.270
  878SOL     OW 7480   0.337   1.500   5.056
  878SOL    HW1 7481   0.385   1.466   4.981
  878SOL    HW2 7482   0.382   1.580   5.080
  879SOL     OW 7483   1.588   0.831   5.370
  879SOL    HW1 7484   1.501   0.873   5.370
  879SOL    HW2 7485   1.570   0.740   5.346
  880SOL     OW 7486   1.008   0.069   5.484
  880SOL    HW1 7487   0.942   0.136   5.467
  880SOL    HW2 7488   1.017   0.022   5.402
  881SOL     OW 7489   0.606   0.008   5.497
  881SOL    HW1 7490   0.640   0.040   5.413
  881SOL    HW2 7491   0.511   0.008   5.486
  882SOL     OW 7492   0.535   0.906   4.778
  882SOL    HW1 7493   0.566   0.996   4.785
  882SOL    HW2 7494   0.500   0.886   4.865
  883SOL     OW 7495   1.370   0.866   4.720
  883SOL    HW1 7496   1.278   0.840   4.714
  883SOL    HW2 7497   1.419   0.784   4.717
  884SOL     OW 7498   1.167   0.546   3.966
  884SOL    HW1 7499   1.169   0.465   4.017
  884SOL    HW2 7500   1.144   0.614   4.029
  885SOL     OW 7501   0.338   0.143   5.077
  885SOL    HW1 7502   0.401   0.142   5.004
  885SOL    HW2 7503   0.332   0.052   5.104
  886SOL     OW 7504   9.993   1.312   4.999
  886SOL    HW1 7505   0.033   1.257   5.065
  886SOL    HW2 7506   0.025   1.400   5.018
  887SOL     OW 7507   0.771   0.756   4.787
  887SOL    HW1 7508   0.759   0.663   4.806
  887SOL    HW2 7509   0.683   0.789   4.770
  888SOL     OW 7510   1.718   0.880   5.613
  888SOL    HW1 7511   1.663   0.870   5.536
  888SOL    HW2 7512   1.662   0.922   5.678
  889SOL     OW 7513   1.687   0.397   4.047
  889SOL    HW1 7514   1.722   0.324   4.098
  889SOL    HW2 7515   1.640   0.450   4.112
  890SOL     OW 7516   1.116   0.754   4.716
  890SOL    HW1 7517   1.075   0.782   4.798
  890SOL    HW2 7518   1.068   0.675   4.692
  891SOL     OW 7519   1.012   1.584   5.433
  891SOL    HW1 7520   0.961   1.623   5.361
  891SOL    HW2 7521   0.985   1.492   5.434
  892SOL     OW 7522   1.886   1.475   5.314
  892SOL    HW1 7523   1.926   1.502   5.232
  892SOL    HW2 7524   1.954   1.489   5.380
  893SOL     OW 7525   0.434   0.923   5.476
  893SOL    HW1 7526   0.484   0.932   5.557
  893SOL    HW2 7527   0.500   0.918   5.407
  894SOL     OW 7528   1.505   0.315   3.858
  894SOL    HW1 7529   1.450   0.264   3.918
  894SOL    HW2 7530   1.579   0.343   3.912
  895SOL     OW 7531   1.314   0.826   3.792
  895SOL    HW1 7532   1.330   0.732   3.794
  895SOL    HW2 7533   1.321   0.849   3.699
  896SOL     OW 7534   1.145   1.359   4.625
  896SOL    HW1 7535   1.113   1.290   4.566
  896SOL    HW2 7536   1.165   1.433   4.567
  897SOL     OW 7537   0.299   0.818   4.663
  897SOL    HW1 7538   0.386   0.847   4.688
  897SOL    HW2 7539   0.296   0.726   4.687
  898SOL     OW 7540   0.314   0.550   4.736
  898SOL    HW1 7541   0.291   0.458   4.747
  898SOL    HW2 7542   0.401   0.549   4.698
  899SOL     OW 7543   1.077   0.389   5.362
  899SOL    HW1 7544   0.989   0.354   5.372
  899SOL    HW2 7545   1.089   0.446   5.438
  900SOL     OW 7546   1.269   0.221   5.263
  900SOL    HW1 7547   1.197   0.263   5.310
  900SOL    HW2 7548   1.268   0.261   5.176
  901SOL     OW 7549   9.974   1.313   3.995
  901SOL    HW1 7550   9.888   1.310   3.954
  901SOL    HW2 7551   0.003   1.222   3.998
  902SOL     OW 7552   0.985   0.805   4.958
  902SOL    HW1 7553   0.996   0.744   5.031
  902SOL    HW2 7554   0.904   0.777   4.915
  903SOL     OW 7555   0.091   0.528   4.911
  903SOL    HW1 7556   0.151   0.574   4.852
  903SOL    HW2 7557   0.107   0.436   4.893
  904SOL     OW 7558   1.331   0.931   5.383
  904SOL    HW1 7559   1.354   1.022   5.364
  904SOL    HW2 7560   1.263   0.910   5.320
  905SOL     OW 7561   0.849   0.622   4.019
  905SOL    HW1 7562   0.873   0.534   3.990
  905SOL    HW2 7563   0.759   0.614   4.049
  906SOL     OW 7564   1.661   0.566   5.049
  906SOL    HW1 7565   1.567   0.563   5.033
  906SOL    HW2 7566   1.699   0.579   4.962
  907SOL     OW 7567   0.310   1.587   5.454
  907SOL    HW1 7568   0.240   1.635   5.498
  907SOL    HW2 7569   0.307   1.499   5.491
  908SOL     OW 7570   0.727   0.507   4.911
  908SOL    HW1 7571   0.650   0.459   4.881
  908SOL    HW2 7572   0.705   0.536   5.000
  909SOL     OW 7573   0.891   1.698   5.210
  909SOL    HW1 7574   0.798   1.716   5.200
  909SOL    HW2 7575   0.935   1.771   5.167
  910SOL     OW 7576   0.498   0.488   3.812
  910SOL    HW1 7577   0.433   0.539   3.764
  910SOL    HW2 7578   0.448   0.443   3.880
  911SOL     OW 7579   0.121   1.124   5.153
  911SOL    HW1 7580   0.139   1.089   5.240
  911SOL    HW2 7581   0.146   1.054   5.093
  912SOL     OW 7582   1.349   1.062   4.914
  912SOL    HW1 7583   1.359   0.993   4.849
  912SOL    HW2 7584   1.267   1.105   4.892
  913SOL     OW 7585   1.279   0.903   4.065
  913SOL    HW1 7586   1.211   0.851   4.108
  913SOL    HW2 7587   1.273   0.880   3.973
  914SOL     OW 7588   1.727   1.723   4.843
  914SOL    HW1 7589   1.803   1.736   4.787
  914SOL    HW2 7590   1.705   1.630   4.833
  915SOL     OW 7591   1.273   1.731   4.847
  915SOL    HW1 7592   1.352   1.744   4.795
  915SOL    HW2 7593   1.276   1.638   4.872
  916SOL     OW 7594   0.133   1.195   4.776
  916SOL    HW1 7595   0.089   1.221   4.857
  916SOL    HW2 7596   0.130   1.273   4.721
  917SOL     OW 7597   0.666   1.681   5.458
  917SOL    HW1 7598   0.586   1.729   5.477
  917SOL    HW2 7599   0.693   1.713   5.372
  918SOL     OW 7600   1.795   0.190   4.203
  918SOL    HW1 7601   1.857   0.170   4.134
  918SOL    HW2 7602   1.849   0.201   4.282
  919SOL     OW 7603   1.382   1.589   4.221
  919SOL    HW1 7604   1.418   1.629   4.142
  919SOL    HW2 7605   1.317   1.652   4.253
  920SOL     OW 7606   0.125   1.763   5.573
  920SOL    HW1 7607   0.079   1.703   5.632
  920SOL    HW2 7608   0.190   1.806   5.628
  921SOL     OW 7609   1.275   0.954   4.416
  921SOL    HW1 7610   1.323   0.872   4.417
  921SOL    HW2 7611   1.301   0.996   4.334
  922SOL     OW 7612   0.814   1.286   5.130
  922SOL    HW1 7613   0.777   1.330   5.206
  922SOL    HW2 7614   0.764   1.319   5.055
  923SOL     OW 7615   0.760   1.639   3.858
  923SOL    HW1 7616   0.730   1.642   3.767
  923SOL    HW2 7617   0.683   1.665   3.909
  924SOL     OW 7618   1.765   1.822   5.100
  924SOL    HW1 7619   1.729   1.789   5.017
  924SOL    HW2 7620   1.688   1.853   5.148
  925SOL     OW 7621   1.205   1.596   3.765
  925SOL    HW1 7622   1.199   1.507   3.801
  925SOL    HW2 7623   1.132   1.601   3.702
  926SOL     OW 7624   0.799   1.005   5.124
  926SOL    HW1 7625   0.834   0.985   5.037
  926SOL    HW2 7626   0.799   1.100   5.129
  927SOL     OW 7627   1.465   1.677   3.768
  927SOL    HW1 7628   1.375   1.645   3.755
  927SOL    HW2 7629   1.506   1.671   3.682
  928SOL     OW 7630   0.345   1.282   5.228
  928SOL    HW1 7631   0.349   1.358   5.169
  928SOL    HW2 7632   0.270   1.232   5.196
  929SOL     OW 7633   1.656   1.355   5.044
  929SOL    HW1 7634   1.663   1.296   5.119
  929SOL    HW2 7635   1.590   1.419   5.070
  930SOL     OW 7636   1.068   1.122   4.513
  930SOL    HW1 7637   0.991   1.075   4.546
  930SOL    HW2 7638   1.127   1.052   4.482
  931SOL     OW 7639   1.044   0.256   4.666
  931SOL    HW1 7640   1.034   0.193   4.594
  931SOL    HW2 7641   1.014   0.208   4.744
  932SOL     OW 7642   0.524   1.447   4.098
  932SOL    HW1 7643   0.610   1.406   4.090
  932SOL    HW2 7644   0.543   1.540   4.115
  933SOL     OW 7645   1.818   0.351   5.114
  933SOL    HW1 7646   1.769   0.432   5.102
  933SOL    HW2 7647   1.779   0.290   5.051
  934SOL     OW 7648   0.191   1.022   5.396
  934SOL    HW1 7649   0.154   1.087   5.456
  934SOL    HW2 7650   0.275   0.998   5.435
  935SOL     OW 7651   0.730   0.093   5.266
  935SOL    HW1 7652   0.778   0.105   5.184
  935SOL    HW2 7653   0.766   0.159   5.325
  936SOL     OW 7654   0.017   0.268   3.742
  936SOL    HW1 7655   9.945   0.327   3.719
  936SOL    HW2 7656   0.088   0.293   3.684
  937SOL     OW 7657   1.420   0.857   5.091
  937SOL    HW1 7658   1.378   0.926   5.041
  937SOL    HW2 7659   1.514   0.868   5.074
  938SOL     OW 7660   1.193   1.334   3.865
  938SOL    HW1 7661   1.098   1.345   3.860
  938SOL    HW2 7662   1.212   1.332   3.958
  939SOL     OW 7663   0.592   0.860   5.245
  939SOL    HW1 7664   0.661   0.918   5.213
  939SOL    HW2 7665   0.612   0.775   5.204
  940SOL     OW 7666   1.495   1.778   4.692
  940SOL    HW1 7667   1.513   1.864   4.654
  940SOL    HW2 7668   1.570   1.761   4.749
  941SOL     OW 7669   1.452   1.180   5.347
  941SOL    HW1 7670   1.442   1.196   5.441
  941SOL    HW2 7671   1.543   1.202   5.328
  942SOL     OW 7672   0.377   1.740   5.242
  942SOL    HW1 7673   0.294   1.788   5.240
  942SOL    HW2 7674   0.362   1.670   5.305
  943SOL     OW 7675   1.698   0.845   5.021
  943SOL    HW1 7676   1.699   0.756   5.056
  943SOL    HW2 7677   1.720   0.835   4.928
  944SOL     OW 7678   1.203   0.355   4.169
  944SOL    HW1 7679   1.267   0.291   4.138
  944SOL    HW2 7680   1.246   0.397   4.243
  945SOL     OW 7681   0.620   0.716   4.405
  945SOL    HW1 7682   0.649   0.807   4.396
  945SOL    HW2 7683   0.553   0.705   4.338
  946SOL     OW 7684   1.763   0.323   5.392
  946SOL    HW1 7685   1.775   0.317   5.297
  946SOL    HW2 7686   1.673   0.293   5.406
  947SOL     OW 7687   1.801   0.966   5.251
  947SOL    HW1 7688   1.732   0.929   5.305
  947SOL    HW2 7689   1.780   0.936   5.162
  948SOL     OW 7690   0.932   1.412   3.859
  948SOL    HW1 7691   0.872   1.374   3.923
  948SOL    HW2 7692   0.892   1.495   3.834
  949SOL     OW 7693   0.839   0.995   4.630
  949SOL    HW1 7694   0.834   0.911   4.676
  949SOL    HW2 7695   0.780   1.053   4.678
  950SOL     OW 7696   1.033   0.899   3.847
  950SOL    HW1 7697   1.023   0.977   3.792
  950SOL    HW2 7698   1.117   0.861   3.821
  951SOL     OW 7699   1.797   1.557   4.565
  951SOL    HW1 7700   1.719   1.555   4.509
  951SOL    HW2 7701   1.772   1.506   4.642
  952SOL     OW 7702   0.262   1.343   5.582
  952SOL    HW1 7703   0.190   1.323   5.524
  952SOL    HW2 7704   0.225   1.338   5.670
  953SOL     OW 7705   0.179   1.199   4.323
  953SOL    HW1 7706   0.085   1.215   4.331
  953SOL    HW2 7707   0.205   1.168   4.410
  954SOL     OW 7708   0.708   1.423   5.348
  954SOL    HW1 7709   0.638   1.368   5.382
  954SOL    HW2 7710   0.697   1.507   5.392
  955SOL     OW 7711   1.747   0.195   4.891
  955SOL    HW1 7712   1.725   0.105   4.914
  955SOL    HW2 7713   1.698   0.211   4.810
  956SOL     OW 7714   0.474   0.400   4.273
  956SOL    HW1 7715   0.479   0.333   4.205
  956SOL    HW2 7716   0.384   0.394   4.306
  957SOL     OW 7717   1.676   1.460   4.791
  957SOL    HW1 7718   1.597   1.436   4.743
  957SOL    HW2 7719   1.670   1.411   4.873
  958SOL     OW 7720   0.834   1.586   4.396
  958SOL    HW1 7721   0.799   1.658   4.343
  958SOL    HW2 7722   0.762   1.523   4.400
  959SOL     OW 7723   1.389   0.223   4.850
  959SOL    HW1 7724   1.398   0.135   4.886
  959SOL    HW2 7725   1.335   0.270   4.914
  960SOL     OW 7726   1.022   0.005   4.825
  960SOL    HW1 7727   0.970   9.944   4.773
  960SOL    HW2 7728   1.112   9.989   4.796
  961SOL     OW 7729   0.780   1.334   4.076
  961SOL    HW1 7730   0.742   1.251   4.105
  961SOL    HW2 7731   0.851   1.351   4.138
  962SOL     OW 7732   1.312   0.015   3.858
  962SOL    HW1 7733   1.379   9.973   3.804
  962SOL    HW2 7734   1.263   9.942   3.896
  963SOL     OW 7735   1.280   0.494   4.398
  963SOL    HW1 7736   1.203   0.550   4.405
  963SOL    HW2 7737   1.285   0.450   4.483
  964SOL     OW 7738   1.597   0.221   4.663
  964SOL    HW1 7739   1.516   0.231   4.712
  964SOL    HW2 7740   1.601   0.298   4.606
  965SOL     OW 7741   0.070   1.055   3.988
  965SOL    HW1 7742   0.148   1.000   3.979
  965SOL    HW2 7743   9.997   0.993   3.984
  966SOL     OW 7744   0.935   1.695   4.067
  966SOL    HW1 7745   0.877   1.680   3.992
  966SOL    HW2 7746   0.893   1.766   4.116
  967SOL     OW 7747   0.129   0.351   6.645
  967SOL    HW1 7748   0.191   0.367   6.574
  967SOL    HW2 7749   0.077   0.277   6.615
  968SOL     OW 7750   0.016   0.357   6.235
  968SOL    HW1 7751   0.064   0.438   6.253
  968SOL    HW2 7752   0.042   0.333   6.146
  969SOL     OW 7753   0.575   1.281   6.815
  969SOL    HW1 7754   0.498   1.296   6.760
  969SOL    HW2 7755   0.603   1.368   6.842
  970SOL     OW 7756   1.596   1.527   6.281
  970SOL    HW1 7757   1.544   1.519   6.361
  970SOL    HW2 7758   1.532   1.538   6.211
  971SOL     OW 7759   1.138   0.715   6.276
  971SOL    HW1 7760   1.186   0.797   6.262
  971SOL    HW2 7761   1.090   0.730   6.358
  972SOL     OW 7762   1.758   0.608   5.772
  972SOL    HW1 7763   1.697   0.598   5.699
  972SOL    HW2 7764   1.727   0.545   5.837
  973SOL     OW 7765   0.777   1.144   6.682
  973SOL    HW1 7766   0.696   1.166   6.728
  973SOL    HW2 7767   0.789   1.215   6.620
  974SOL     OW 7768   0.691   0.938   6.299
  974SOL    HW1 7769   0.766   0.970   6.349
  974SOL    HW2 7770   0.706   0.971   6.210
  975SOL     OW 7771   0.724   1.146   7.408
  975SOL    HW1 7772   0.768   1.218   7.452
  975SOL    HW2 7773   0.659   1.189   7.352
  976SOL     OW 7774   0.362   1.400   6.675
  976SOL    HW1 7775   0.283   1.366   6.634
  976SOL    HW2 7776   0.406   1.451   6.607
  977SOL     OW 7777   0.448   0.423   7.050
  977SOL    HW1 7778   0.527   0.384   7.086
  977SOL    HW2 7779   0.397   0.349   7.018
  978SOL     OW 7780   1.558   0.425   6.310
  978SOL    HW1 7781   1.472   0.431   6.268
  978SOL    HW2 7782   1.555   0.490   6.380
  979SOL     OW 7783   0.210   1.643   6.000
  979SOL    HW1 7784   0.184   1.721   6.049
  979SOL    HW2 7785   0.304   1.656   5.983
  980SOL     OW 7786   1.155   1.366   7.325
  980SOL    HW1 7787   1.174   1.315   7.404
  980SOL    HW2 7788   1.103   1.306   7.270
  981SOL     OW 7789   0.134   1.405   6.116
  981SOL    HW1 7790   0.169   1.478   6.066
  981SOL    HW2 7791   0.141   1.432   6.208
  982SOL     OW 7792   0.320   1.086   6.584
  982SOL    HW1 7793   0.293   1.050   6.499
  982SOL    HW2 7794   0.275   1.170   6.589
  983SOL     OW 7795   0.617   1.781   7.112
  983SOL    HW1 7796   0.526   1.772   7.140
  983SOL    HW2 7797   0.629   1.875   7.100
  984SOL     OW 7798   0.585   0.964   5.711
  984SOL    HW1 7799   0.648   1.027   5.677
  984SOL    HW2 7800   0.545   1.008   5.786
  985SOL     OW 7801   1.894   1.733   5.922
  985SOL    HW1 7802   1.826   1.729   5.989
  985SOL    HW2 7803   1.969   1.774   5.965
  986SOL     OW 7804   0.055   1.593   5.777
  986SOL    HW1 7805   0.048   1.498   5.772
  986SOL    HW2 7806   0.114   1.609   5.850
  987SOL     OW 7807   1.715   0.941   6.261
  987SOL    HW1 7808   1.810   0.927   6.267
  987SOL    HW2 7809   1.702   0.980   6.174
  988SOL     OW 7810   1.683   1.115   6.026
  988SOL    HW1 7811   1.765   1.107   5.977
  988SOL    HW2 7812   1.701   1.181   6.093
  989SOL     OW 7813   0.155   0.835   7.143
  989SOL    HW1 7814   0.248   0.819   7.160
  989SOL    HW2 7815   0.134   0.911   7.197
  990SOL     OW 7816   1.319   1.228   7.042
  990SOL    HW1 7817   1.302   1.144   6.998
  990SOL    HW2 7818   1.369   1.204   7.120
  991SOL     OW 7819   0.801   0.067   6.181
  991SOL    HW1 7820   0.834   0.140   6.130
  991SOL    HW2 7821   0.708   0.061   6.158
  992SOL     OW 7822   0.184   0.999   6.827
  992SOL    HW1 7823   0.244   0.927   6.847
  992SOL    HW2 7824   0.219   1.037   6.747
  993SOL     OW 7825   1.544   1.002   5.804
  993SOL    HW1 7826   1.476   0.944   5.837
  993SOL    HW2 7827   1.586   1.037   5.883
  994SOL     OW 7828   0.362   0.336   7.406
  994SOL    HW1 7829   0.424   0.379   7.465
  994SOL    HW2 7830   0.315   0.407   7.363
  995SOL     OW 7831   1.431   1.500   6.496
  995SOL    HW1 7832   1.449   1.515   6.589
  995SOL    HW2 7833   1.413   1.406   6.491
  996SOL     OW 7834   1.700   1.740   6.119
  996SOL    HW1 7835   1.632   1.718   6.055
  996SOL    HW2 7836   1.682   1.681   6.193
  997SOL     OW 7837   0.629   0.740   5.886
  997SOL    HW1 7838   0.623   0.812   5.824
  997SOL    HW2 7839   0.549   0.746   5.938
  998SOL     OW 7840   1.296   0.384   6.542
  998SOL    HW1 7841   1.209   0.346   6.550
  998SOL    HW2 7842   1.352   0.328   6.596
  999SOL     OW 7843   1.577   1.678   5.878
  999SOL    HW1 7844   1.669   1.677   5.849
  999SOL    HW2 7845   1.527   1.671   5.797
 1000SOL     OW 7846   0.723   0.630   7.074
 1000SOL    HW1 7847   0.728   0.584   7.158
 1000SOL    HW2 7848   0.737   0.562   7.008
 1001SOL     OW 7849   1.429   0.502   7.238
 1001SOL    HW1 7850   1.451   0.544   7.322
 1001SOL    HW2 7851   1.508   0.455   7.213
 1002SOL     OW 7852   0.927   0.871   7.155
 1002SOL    HW1 7853   0.958   0.786   7.123
 1002SOL    HW2 7854   0.888   0.913   7.078
 1003SOL     OW 7855   1.017   0.447   6.811
 1003SOL    HW1 7856   0.923   0.445   6.831
 1003SOL    HW2 7857   1.021   0.434   6.716
 1004SOL     OW 7858   1.070   0.721   6.003
 1004SOL    HW1 7859   1.083   0.716   6.097
 1004SOL    HW2 7860   0.988   0.674   5.987
 1005SOL     OW 7861   0.116   1.806   7.104
 1005SOL    HW1 7862   0.080   1.804   7.193
 1005SOL    HW2 7863   0.085   1.888   7.067
 1006SOL     OW 7864   0.895   0.341   5.772
 1006SOL    HW1 7865   0.865   0.387   5.694
 1006SOL    HW2 7866   0.979   0.302   5.746
 1007SOL     OW 7867   1.411   1.168   6.138
 1007SOL    HW1 7868   1.489   1.157   6.083
 1007SOL    HW2 7869   1.355   1.228   6.089
 1008SOL     OW 7870   0.578   0.187   6.527
 1008SOL    HW1 7871   0.588   0.219   6.616
 1008SOL    HW2 7872   0.589   0.265   6.472
 1009SOL     OW 7873   1.029   1.492   6.074
 1009SOL    HW1 7874   1.003   1.562   6.014
 1009SOL    HW2 7875   0.959   1.488   6.139
 1010SOL     OW 7876   0.336   1.795   6.511
 1010SOL    HW1 7877   0.382   1.711   6.500
 1010SOL    HW2 7878   0.405   1.859   6.525
 1011SOL     OW 7879   1.734   1.143   6.464
 1011SOL    HW1 7880   1.728   1.058   6.422
 1011SOL    HW2 7881   1.682   1.135   6.544
 1012SOL     OW 7882   0.257   0.902   5.961
 1012SOL    HW1 7883   0.338   0.942   5.928
 1012SOL    HW2 7884   0.285   0.822   6.004
 1013SOL     OW 7885   1.506   0.767   6.289
 1013SOL    HW1 7886   1.514   0.710   6.365
 1013SOL    HW2 7887   1.584   0.823   6.292
 1014SOL     OW 7888   0.385   1.304   7.396
 1014SOL    HW1 7889   0.402   1.306   7.302
 1014SOL    HW2 7890   0.298   1.264   7.404
 1015SOL     OW 7891   1.170   1.765   5.805
 1015SOL    HW1 7892   1.089   1.748   5.853
 1015SOL    HW2 7893   1.176   1.692   5.742
 1016SOL     OW 7894   0.137   0.310   7.065
 1016SOL    HW1 7895   0.137   0.400   7.033
 1016SOL    HW2 7896   0.168   0.317   7.155
 1017SOL     OW 7897   1.637   1.405   5.675
 1017SOL    HW1 7898   1.585   1.484   5.658
 1017SOL    HW2 7899   1.577   1.333   5.654
 1018SOL     OW 7900   0.469   1.712   5.928
 1018SOL    HW1 7901   0.528   1.759   5.988
 1018SOL    HW2 7902   0.501   1.622   5.930
 1019SOL     OW 7903   1.452   0.181   6.014
 1019SOL    HW1 7904   1.414   0.139   5.937
 1019SOL    HW2 7905   1.544   0.154   6.013
 1020SOL     OW 7906   0.278   1.797   6.793
 1020SOL    HW1 7907   0.302   1.712   6.830
 1020SOL    HW2 7908   0.287   1.786   6.699
 1021SOL     OW 7909   0.929   1.693   6.434
 1021SOL    HW1 7910   1.015   1.650   6.436
 1021SOL    HW2 7911   0.881   1.647   6.365
 1022SOL     OW 7912   0.355   0.671   6.093
 1022SOL    HW1 7913   0.415   0.597   6.085
 1022SOL    HW2 7914   0.292   0.644   6.160
 1023SOL     OW 7915   1.568   0.170   7.366
 1023SOL    HW1 7916   1.547   0.231   7.437
 1023SOL    HW2 7917   1.594   0.225   7.293
 1024SOL     OW 7918   0.694   0.112   5.742
 1024SOL    HW1 7919   0.753   0.185   5.728
 1024SOL    HW2 7920   0.669   0.083   5.654
 1025SOL     OW 7921   0.774   0.234   7.365
 1025SOL    HW1 7922   0.842   0.167   7.352
 1025SOL    HW2 7923   0.727   0.206   7.444
 1026SOL     OW 7924   0.830   1.463   6.781
 1026SOL    HW1 7925   0.803   1.437   6.693
 1026SOL    HW2 7926   0.925   1.472   6.775
 1027SOL     OW 7927   1.322   0.619   7.013
 1027SOL    HW1 7928   1.365   0.587   7.092
 1027SOL    HW2 7929   1.367   0.701   6.992
 1028SOL     OW 7930   0.783   1.370   6.525
 1028SOL    HW1 7931   0.869   1.373   6.483
 1028SOL    HW2 7932   0.721   1.381   6.453
 1029SOL     OW 7933   0.922   0.510   6.481
 1029SOL    HW1 7934   0.886   0.501   6.393
 1029SOL    HW2 7935   0.955   0.423   6.503
 1030SOL     OW 7936   0.535   0.058   6.112
 1030SOL    HW1 7937   0.447   0.037   6.145
 1030SOL    HW2 7938   0.520   0.122   6.042
 1031SOL     OW 7939   1.455   1.203   5.626
 1031SOL    HW1 7940   1.478   1.127   5.680
 1031SOL    HW2 7941   1.370   1.232   5.661
 1032SOL     OW 7942   0.950   0.265   6.039
 1032SOL    HW1 7943   0.918   0.295   5.953
 1032SOL    HW2 7944   1.041   0.293   6.041
 1033SOL     OW 7945   1.047   0.657   7.002
 1033SOL    HW1 7946   1.028   0.576   6.956
 1033SOL    HW2 7947   1.143   0.657   7.012
 1034SOL     OW 7948   1.193   1.599   6.387
 1034SOL    HW1 7949   1.218   1.661   6.318
 1034SOL    HW2 7950   1.277   1.571   6.425
 1035SOL     OW 7951   1.267   1.812   6.208
 1035SOL    HW1 7952   1.307   1.879   6.154
 1035SOL    HW2 7953   1.190   1.855   6.246
 1036SOL     OW 7954   1.118   0.524   5.596
 1036SOL    HW1 7955   1.044   0.584   5.592
 1036SOL    HW2 7956   1.148   0.529   5.687
 1037SOL     OW 7957   0.175   0.583   7.012
 1037SOL    HW1 7958   0.246   0.590   6.949
 1037SOL    HW2 7959   0.156   0.674   7.038
 1038SOL     OW 7960   0.592   0.247   6.799
 1038SOL    HW1 7961   0.653   0.192   6.849
 1038SOL    HW2 7962   0.507   0.231   6.839
 1039SOL     OW 7963   0.833   0.452   6.221
 1039SOL    HW1 7964   0.805   0.514   6.154
 1039SOL    HW2 7965   0.872   0.379   6.172
 1040SOL     OW 7966   0.961   0.063   6.409
 1040SOL    HW1 7967   0.909   0.072   6.329
 1040SOL    HW2 7968   0.964   9.969   6.424
 1041SOL     OW 7969   1.385   1.238   6.414
 1041SOL    HW1 7970   1.301   1.194   6.429
 1041SOL    HW2 7971   1.409   1.214   6.325
 1042SOL     OW 7972   1.518   0.600   6.513
 1042SOL    HW1 7973   1.447   0.557   6.560
 1042SOL    HW2 7974   1.548   0.669   6.572
 1043SOL     OW 7975   1.871   0.797   5.948
 1043SOL    HW1 7976   1.878   0.753   6.032
 1043SOL    HW2 7977   1.807   0.746   5.899
 1044SOL     OW 7978   0.568   1.464   5.818
 1044SOL    HW1 7979   0.580   1.399   5.887
 1044SOL    HW2 7980   0.512   1.422   5.754
 1045SOL     OW 7981   1.740   1.289   6.233
 1045SOL    HW1 7982   1.731   1.244   6.317
 1045SOL    HW2 7983   1.690   1.370   6.244
 1046SOL     OW 7984   1.424   0.548   5.656
 1046SOL    HW1 7985   1.358   0.561   5.724
 1046SOL    HW2 7986   1.457   0.460   5.672
 1047SOL     OW 7987   0.501   0.245   5.905
 1047SOL    HW1 7988   0.556   0.202   5.840
 1047SOL    HW2 7989   0.434   0.289   5.854
 1048SOL     OW 7990   1.771   1.202   7.151
 1048SOL    HW1 7991   1.839   1.175   7.213
 1048SOL    HW2 7992   1.809   1.276   7.104
 1049SOL     OW 7993   1.099   1.380   6.926
 1049SOL    HW1 7994   1.015   1.371   6.971
 1049SOL    HW2 7995   1.164   1.354   6.991
 1050SOL     OW 7996   1.226   1.307   6.698
 1050SOL    HW1 7997   1.174   1.342   6.770
 1050SOL    HW2 7998   1.173   1.321   6.620
 1051SOL     OW 7999   1.572   1.095   6.686
 1051SOL    HW1 8000   1.613   1.023   6.734
 1051SOL    HW2 8001   1.500   1.055   6.638
 1052SOL     OW 8002   0.862   0.178   6.958
 1052SOL    HW1 8003   0.897   0.130   6.883
 1052SOL    HW2 8004   0.938   0.224   6.995
 1053SOL     OW 8005   1.000   1.169   7.184
 1053SOL    HW1 8006   0.939   1.224   7.134
 1053SOL    HW2 8007   1.050   1.122   7.118
 1054SOL     OW 8008   0.761   1.039   6.049
 1054SOL    HW1 8009   0.702   1.106   6.014
 1054SOL    HW2 8010   0.801   0.999   5.972
 1055SOL     OW 8011   0.360   0.795   6.859
 1055SOL    HW1 8012   0.438   0.835   6.897
 1055SOL    HW2 8013   0.391   0.711   6.823
 1056SOL     OW 8014   1.275   0.376   6.885
 1056SOL    HW1 8015   1.309   0.458   6.922
 1056SOL    HW2 8016   1.192   0.400   6.844
 1057SOL     OW 8017   0.095   1.551   6.995
 1057SOL    HW1 8018   0.087   1.642   7.025
 1057SOL    HW2 8019   0.185   1.544   6.964
 1058SOL     OW 8020   0.621   0.437   6.408
 1058SOL    HW1 8021   0.684   0.430   6.336
 1058SOL    HW2 8022   0.573   0.518   6.390
 1059SOL     OW 8023   1.265   1.371   6.004
 1059SOL    HW1 8024   1.319   1.444   6.034
 1059SOL    HW2 8025   1.176   1.393   6.030
 1060SOL     OW 8026   1.520   0.660   6.030
 1060SOL    HW1 8027   1.512   0.689   6.121
 1060SOL    HW2 8028   1.459   0.716   5.982
 1061SOL     OW 8029   0.354   1.540   6.905
 1061SOL    HW1 8030   0.352   1.487   6.825
 1061SOL    HW2 8031   0.447   1.559   6.919
 1062SOL     OW 8032   0.419   0.712   7.168
 1062SOL    HW1 8033   0.475   0.764   7.110
 1062SOL    HW2 8034   0.437   0.622   7.143
 1063SOL     OW 8035   1.617   0.780   7.295
 1063SOL    HW1 8036   1.530   0.814   7.279
 1063SOL    HW2 8037   1.670   0.814   7.222
 1064SOL     OW 8038   0.971   0.034   7.348
 1064SOL    HW1 8039   1.024   0.096   7.398
 1064SOL    HW2 8040   1.019   0.023   7.266
 1065SOL     OW 8041   0.505   9.992   7.334
 1065SOL    HW1 8042   0.578   9.939   7.303
 1065SOL    HW2 8043   0.500   0.065   7.272
 1066SOL     OW 8044   0.558   0.885   6.582
 1066SOL    HW1 8045   0.581   0.896   6.490
 1066SOL    HW2 8046   0.495   0.955   6.599
 1067SOL     OW 8047   1.373   0.918   6.601
 1067SOL    HW1 8048   1.334   0.877   6.524
 1067SOL    HW2 8049   1.454   0.868   6.617
 1068SOL     OW 8050   1.219   0.541   5.850
 1068SOL    HW1 8051   1.223   0.466   5.909
 1068SOL    HW2 8052   1.169   0.607   5.899
 1069SOL     OW 8053   0.348   0.195   6.919
 1069SOL    HW1 8054   0.258   0.217   6.941
 1069SOL    HW2 8055   0.347   0.101   6.902
 1070SOL     OW 8056   0.019   1.321   6.862
 1070SOL    HW1 8057   0.063   1.261   6.921
 1070SOL    HW2 8058   0.036   1.408   6.899
 1071SOL     OW 8059   0.714   0.666   6.659
 1071SOL    HW1 8060   0.731   0.623   6.576
 1071SOL    HW2 8061   0.656   0.739   6.637
 1072SOL     OW 8062   1.727   0.970   7.469
 1072SOL    HW1 8063   1.691   0.893   7.426
 1072SOL    HW2 8064   1.674   0.982   7.547
 1073SOL     OW 8065   0.285   0.031   6.250
 1073SOL    HW1 8066   0.294   0.124   6.227
 1073SOL    HW2 8067   0.300   0.027   6.344
 1074SOL     OW 8068   1.628   0.430   5.930
 1074SOL    HW1 8069   1.670   0.390   6.006
 1074SOL    HW2 8070   1.575   0.501   5.965
 1075SOL     OW 8071   1.025   0.758   6.531
 1075SOL    HW1 8072   1.012   0.776   6.625
 1075SOL    HW2 8073   0.986   0.671   6.518
 1076SOL     OW 8074   0.458   0.915   7.358
 1076SOL    HW1 8075   0.505   0.879   7.433
 1076SOL    HW2 8076   0.446   0.840   7.299
 1077SOL     OW 8077   1.519   0.296   5.705
 1077SOL    HW1 8078   1.464   0.224   5.735
 1077SOL    HW2 8079   1.561   0.328   5.785
 1078SOL     OW 8080   1.286   0.825   5.633
 1078SOL    HW1 8081   1.255   0.737   5.615
 1078SOL    HW2 8082   1.306   0.862   5.547
 1079SOL     OW 8083   1.062   1.368   6.472
 1079SOL    HW1 8084   1.083   1.289   6.421
 1079SOL    HW2 8085   1.104   1.439   6.424
 1080SOL     OW 8086   1.184   0.384   7.299
 1080SOL    HW1 8087   1.136   0.454   7.342
 1080SOL    HW2 8088   1.268   0.423   7.275
 1081SOL     OW 8089   1.111   0.248   7.068
 1081SOL    HW1 8090   1.129   0.296   7.149
 1081SOL    HW2 8091   1.171   0.285   7.004
 1082SOL     OW 8092   0.053   1.317   5.767
 1082SOL    HW1 8093   0.006   1.288   5.689
 1082SOL    HW2 8094   0.051   1.241   5.825
 1083SOL     OW 8095   0.080   1.750   6.404
 1083SOL    HW1 8096   0.091   1.657   6.386
 1083SOL    HW2 8097   0.160   1.775   6.452
 1084SOL     OW 8098   0.487   1.567   6.500
 1084SOL    HW1 8099   0.563   1.616   6.532
 1084SOL    HW2 8100   0.522   1.514   6.428
 1085SOL     OW 8101   0.927   0.797   6.789
 1085SOL    HW1 8102   0.962   0.748   6.864
 1085SOL    HW2 8103   0.850   0.747   6.761
 1086SOL     OW 8104   0.188   0.532   7.292
 1086SOL    HW1 8105   0.194   0.544   7.197
 1086SOL    HW2 8106   0.189   0.621   7.327
 1087SOL     OW 8107   1.381   0.913   7.234
 1087SOL    HW1 8108   1.421   1.000   7.244
 1087SOL    HW2 8109   1.389   0.893   7.141
 1088SOL     OW 8110   0.840   0.576   5.953
 1088SOL    HW1 8111   0.836   0.508   5.886
 1088SOL    HW2 8112   0.765   0.633   5.933
 1089SOL     OW 8113   0.271   1.559   7.403
 1089SOL    HW1 8114   0.189   1.533   7.361
 1089SOL    HW2 8115   0.320   1.477   7.412
 1090SOL     OW 8116   0.747   0.471   6.848
 1090SOL    HW1 8117   0.692   0.396   6.826
 1090SOL    HW2 8118   0.726   0.537   6.782
 1091SOL     OW 8119   0.171   1.176   7.051
 1091SOL    HW1 8120   0.149   1.135   7.134
 1091SOL    HW2 8121   0.183   1.104   6.990
 1092SOL     OW 8122   1.285   1.060   6.816
 1092SOL    HW1 8123   1.303   1.002   6.742
 1092SOL    HW2 8124   1.250   1.140   6.777
 1093SOL     OW 8125   1.339   0.835   5.904
 1093SOL    HW1 8126   1.257   0.822   5.950
 1093SOL    HW2 8127   1.317   0.826   5.811
 1094SOL     OW 8128   0.122   1.286   6.597
 1094SOL    HW1 8129   0.083   1.299   6.683
 1094SOL    HW2 8130   0.060   1.230   6.551
 1095SOL     OW 8131   0.774   1.643   7.295
 1095SOL    HW1 8132   0.722   1.694   7.233
 1095SOL    HW2 8133   0.865   1.659   7.270
 1096SOL     OW 8134   1.737   0.110   6.014
 1096SOL    HW1 8135   1.812   0.111   5.954
 1096SOL    HW2 8136   1.749   0.188   6.068
 1097SOL     OW 8137   1.410   1.598   6.090
 1097SOL    HW1 8138   1.442   1.633   6.007
 1097SOL    HW2 8139   1.350   1.665   6.122
 1098SOL     OW 8140   1.296   0.937   6.241
 1098SOL    HW1 8141   1.371   0.878   6.252
 1098SOL    HW2 8142   1.332   1.013   6.197
 1099SOL     OW 8143   0.842   1.322   7.024
 1099SOL    HW1 8144   0.767   1.338   7.082
 1099SOL    HW2 8145   0.816   1.360   6.940
 1100SOL     OW 8146   0.730   1.671   5.729
 1100SOL    HW1 8147   0.720   1.666   5.634
 1100SOL    HW2 8148   0.667   1.606   5.763
 1101SOL     OW 8149   1.886   0.221   6.505
 1101SOL    HW1 8150   1.917   0.248   6.418
 1101SOL    HW2 8151   1.794   0.200   6.492
 1102SOL     OW 8152   0.319   0.299   6.233
 1102SOL    HW1 8153   0.259   0.318   6.161
 1102SOL    HW2 8154   0.296   0.363   6.301
 1103SOL     OW 8155   1.220   1.568   5.617
 1103SOL    HW1 8156   1.211   1.480   5.654
 1103SOL    HW2 8157   1.149   1.574   5.553
 1104SOL     OW 8158   0.824   1.009   6.941
 1104SOL    HW1 8159   0.859   0.956   6.869
 1104SOL    HW2 8160   0.807   1.094   6.902
 1105SOL     OW 8161   0.931   0.920   5.847
 1105SOL    HW1 8162   0.997   0.979   5.812
 1105SOL    HW2 8163   0.979   0.864   5.908
 1106SOL     OW 8164   1.483   1.654   5.618
 1106SOL    HW1 8165   1.392   1.625   5.608
 1106SOL    HW2 8166   1.521   1.643   5.531
 1107SOL     OW 8167   0.382   1.355   7.121
 1107SOL    HW1 8168   0.374   1.418   7.050
 1107SOL    HW2 8169   0.318   1.287   7.099
 1108SOL     OW 8170   1.132   1.120   6.374
 1108SOL    HW1 8171   1.047   1.083   6.400
 1108SOL    HW2 8172   1.172   1.052   6.320
 1109SOL     OW 8173   1.038   0.270   6.571
 1109SOL    HW1 8174   1.017   0.212   6.498
 1109SOL    HW2 8175   1.020   0.218   6.649
 1110SOL     OW 8176   1.773   0.351   6.816
 1110SOL    HW1 8177   1.824   0.397   6.883
 1110SOL    HW2 8178   1.716   0.291   6.865
 1111SOL     OW 8179   0.647   0.241   7.120
 1111SOL    HW1 8180   0.719   0.219   7.061
 1111SOL    HW2 8181   0.688   0.246   7.207
 1112SOL     OW 8182   1.427   0.873   6.967
 1112SOL    HW1 8183   1.374   0.928   6.911
 1112SOL    HW2 8184   1.514   0.874   6.926
 1113SOL     OW 8185   1.217   1.308   5.730
 1113SOL    HW1 8186   1.170   1.225   5.731
 1113SOL    HW2 8187   1.227   1.331   5.823
 1114SOL     OW 8188   0.592   0.853   6.998
 1114SOL    HW1 8189   0.653   0.923   6.976
 1114SOL    HW2 8190   0.648   0.778   7.020
 1115SOL     OW 8191   1.456   1.820   6.703
 1115SOL    HW1 8192   1.411   1.815   6.619
 1115SOL    HW2 8193   1.488   1.731   6.719
 1116SOL     OW 8194   0.714   0.501   7.320
 1116SOL    HW1 8195   0.657   0.516   7.395
 1116SOL    HW2 8196   0.747   0.412   7.333
 1117SOL     OW 8197   1.502   1.162   7.241
 1117SOL    HW1 8198   1.497   1.188   7.333
 1117SOL    HW2 8199   1.593   1.175   7.217
 1118SOL     OW 8200   0.364   1.747   7.217
 1118SOL    HW1 8201   0.287   1.765   7.163
 1118SOL    HW2 8202   0.337   1.674   7.273
 1119SOL     OW 8203   1.223   0.341   6.045
 1119SOL    HW1 8204   1.296   0.280   6.036
 1119SOL    HW2 8205   1.239   0.387   6.127
 1120SOL     OW 8206   0.554   0.699   6.323
 1120SOL    HW1 8207   0.606   0.778   6.308
 1120SOL    HW2 8208   0.491   0.697   6.251
 1121SOL     OW 8209   1.655   0.351   7.171
 1121SOL    HW1 8210   1.732   0.402   7.146
 1121SOL    HW2 8211   1.644   0.287   7.101
 1122SOL     OW 8212   1.750   0.916   7.094
 1122SOL    HW1 8213   1.757   1.011   7.103
 1122SOL    HW2 8214   1.729   0.902   7.002
 1123SOL     OW 8215   0.827   1.373   5.696
 1123SOL    HW1 8216   0.780   1.351   5.776
 1123SOL    HW2 8217   0.833   1.468   5.697
 1124SOL     OW 8218   0.685   1.740   6.571
 1124SOL    HW1 8219   0.656   1.830   6.552
 1124SOL    HW2 8220   0.771   1.733   6.529
 1125SOL     OW 8221   0.902   1.002   6.472
 1125SOL    HW1 8222   0.937   0.916   6.497
 1125SOL    HW2 8223   0.859   1.034   6.551
 1126SOL     OW 8224   1.131   1.049   5.696
 1126SOL    HW1 8225   1.076   1.062   5.619
 1126SOL    HW2 8226   1.179   0.969   5.677
 1127SOL     OW 8227   1.837   1.573   6.438
 1127SOL    HW1 8228   1.758   1.556   6.388
 1127SOL    HW2 8229   1.830   1.516   6.515
 1128SOL     OW 8230   0.650   1.373   7.219
 1128SOL    HW1 8231   0.562   1.376   7.180
 1128SOL    HW2 8232   0.669   1.464   7.242
 1129SOL     OW 8233   1.915   0.089   6.836
 1129SOL    HW1 8234   1.868   0.080   6.919
 1129SOL    HW2 8235   1.863   0.152   6.786
 1130SOL     OW 8236   0.511   0.446   6.098
 1130SOL    HW1 8237   0.523   0.386   6.023
 1130SOL    HW2 8238   0.466   0.393   6.163
 1131SOL     OW 8239   0.390   0.532   6.796
 1131SOL    HW1 8240   0.423   0.494   6.877
 1131SOL    HW2 8241   0.423   0.474   6.727
 1132SOL     OW 8242   0.798   1.570   6.226
 1132SOL    HW1 8243   0.754   1.610   6.151
 1132SOL    HW2 8244   0.735   1.508   6.262
 1133SOL     OW 8245   1.462   0.232   6.713
 1133SOL    HW1 8246   1.519   0.167   6.755
 1133SOL    HW2 8247   1.419   0.276   6.786
 1134SOL     OW 8248   0.981   0.052   6.742
 1134SOL    HW1 8249   0.899   0.026   6.700
 1134SOL    HW2 8250   1.048   0.003   6.694
 1135SOL     OW 8251   0.623   1.564   6.933
 1135SOL    HW1 8252   0.641   1.642   6.984
 1135SOL    HW2 8253   0.699   1.555   6.875
 1136SOL     OW 8254   1.341   0.099   5.776
 1136SOL    HW1 8255   1.309   0.011   5.794
 1136SOL    HW2 8256   1.266   0.146   5.741
 1137SOL     OW 8257   1.283   0.476   6.278
 1137SOL    HW1 8258   1.232   0.557   6.275
 1137SOL    HW2 8259   1.280   0.449   6.369
 1138SOL     OW 8260   1.608   0.202   6.465
 1138SOL    HW1 8261   1.559   0.206   6.547
 1138SOL    HW2 8262   1.582   0.281   6.417
 1139SOL     OW 8263   0.052   1.078   5.910
 1139SOL    HW1 8264   0.117   1.008   5.910
 1139SOL    HW2 8265   9.973   1.038   5.947
 1140SOL     OW 8266   0.930   1.704   5.923
 1140SOL    HW1 8267   0.857   1.700   5.861
 1140SOL    HW2 8268   0.910   1.779   5.979
 1141SOL     OW 8269   0.269   0.653   7.622
 1141SOL    HW1 8270   0.284   0.706   7.700
 1141SOL    HW2 8271   0.233   0.714   7.558
 1142SOL     OW 8272   0.211   0.307   8.523
 1142SOL    HW1 8273   0.248   0.265   8.600
 1142SOL    HW2 8274   0.223   0.243   8.453
 1143SOL     OW 8275   0.014   0.346   8.095
 1143SOL    HW1 8276   9.928   0.372   8.128
 1143SOL    HW2 8277   0.024   0.394   8.013
 1144SOL     OW 8278   0.565   1.312   8.643
 1144SOL    HW1 8279   0.482   1.315   8.595
 1144SOL    HW2 8280   0.581   1.402   8.670
 1145SOL     OW 8281   1.618   1.512   8.180
 1145SOL    HW1 8282   1.556   1.491   8.250
 1145SOL    HW2 8283   1.563   1.525   8.102
 1146SOL     OW 8284   1.150   0.715   8.121
 1146SOL    HW1 8285   1.220   0.779   8.109
 1146SOL    HW2 8286   1.103   0.745   8.199
 1147SOL     OW 8287   0.763   1.171   8.512
 1147SOL    HW1 8288   0.680   1.196   8.551
 1147SOL    HW2 8289   0.789   1.246   8.459
 1148SOL     OW 8290   0.837   0.723   9.282
 1148SOL    HW1 8291   0.857   0.754   9.370
 1148SOL    HW2 8292   0.863   0.795   9.225
 1149SOL     OW 8293   0.699   0.990   8.097
 1149SOL    HW1 8294   0.768   0.997   8.164
 1149SOL    HW2 8295   0.633   1.054   8.123
 1150SOL     OW 8296   0.720   1.157   9.278
 1150SOL    HW1 8297   0.764   1.229   9.323
 1150SOL    HW2 8298   0.641   1.196   9.240
 1151SOL     OW 8299   0.339   1.405   8.499
 1151SOL    HW1 8300   0.264   1.388   8.442
 1151SOL    HW2 8301   0.396   1.461   8.448
 1152SOL     OW 8302   1.453   1.518   8.824
 1152SOL    HW1 8303   1.504   1.598   8.836
 1152SOL    HW2 8304   1.380   1.527   8.886
 1153SOL     OW 8305   0.453   0.395   8.913
 1153SOL    HW1 8306   0.528   0.338   8.930
 1153SOL    HW2 8307   0.377   0.344   8.944
 1154SOL     OW 8308   1.090   1.349   9.110
 1154SOL    HW1 8309   1.119   1.355   9.201
 1154SOL    HW2 8310   1.047   1.263   9.105
 1155SOL     OW 8311   0.217   1.461   8.046
 1155SOL    HW1 8312   0.194   1.553   8.055
 1155SOL    HW2 8313   0.134   1.418   8.023
 1156SOL     OW 8314   0.288   1.052   8.326
 1156SOL    HW1 8315   0.302   0.960   8.345
 1156SOL    HW2 8316   0.221   1.080   8.388
 1157SOL     OW 8317   0.563   1.829   8.834
 1157SOL    HW1 8318   0.489   1.807   8.889
 1157SOL    HW2 8319   0.608   1.900   8.881
 1158SOL     OW 8320   0.592   0.980   7.615
 1158SOL    HW1 8321   0.615   1.035   7.540
 1158SOL    HW2 8322   0.636   1.021   7.690
 1159SOL     OW 8323   1.566   0.115   8.819
 1159SOL    HW1 8324   1.636   0.071   8.772
 1159SOL    HW2 8325   1.603   0.199   8.845
 1160SOL     OW 8326   0.193   0.618   8.070
 1160SOL    HW1 8327   0.126   0.594   8.006
 1160SOL    HW2 8328   0.145   0.663   8.139
 1161SOL     OW 8329   1.843   1.769   7.754
 1161SOL    HW1 8330   1.909   1.742   7.818
 1161SOL    HW2 8331   1.858   1.862   7.741
 1162SOL     OW 8332   0.150   0.756   9.059
 1162SOL    HW1 8333   0.245   0.768   9.059
 1162SOL    HW2 8334   0.122   0.792   9.143
 1163SOL     OW 8335   0.625   1.390   8.182
 1163SOL    HW1 8336   0.578   1.307   8.181
 1163SOL    HW2 8337   0.617   1.423   8.093
 1164SOL     OW 8338   1.294   1.205   8.832
 1164SOL    HW1 8339   1.332   1.144   8.769
 1164SOL    HW2 8340   1.354   1.203   8.906
 1165SOL     OW 8341   0.856   0.050   8.007
 1165SOL    HW1 8342   0.878   0.136   7.970
 1165SOL    HW2 8343   0.763   0.039   7.986
 1166SOL     OW 8344   0.138   0.939   8.711
 1166SOL    HW1 8345   0.230   0.916   8.697
 1166SOL    HW2 8346   0.096   0.923   8.626
 1167SOL     OW 8347   1.535   1.008   7.686
 1167SOL    HW1 8348   1.455   0.959   7.704
 1167SOL    HW2 8349   1.580   1.012   7.771
 1168SOL     OW 8350   1.186   1.814   9.083
 1168SOL    HW1 8351   1.193   1.884   9.018
 1168SOL    HW2 8352   1.220   1.737   9.039
 1169SOL     OW 8353   0.400   0.257   9.275
 1169SOL    HW1 8354   0.464   0.309   9.324
 1169SOL    HW2 8355   0.318   0.268   9.324
 1170SOL     OW 8356   1.428   1.435   8.375
 1170SOL    HW1 8357   1.378   1.453   8.455
 1170SOL    HW2 8358   1.462   1.347   8.388
 1171SOL     OW 8359   1.613   1.839   7.977
 1171SOL    HW1 8360   1.611   1.786   7.898
 1171SOL    HW2 8361   1.598   1.776   8.048
 1172SOL     OW 8362   0.608   0.718   7.723
 1172SOL    HW1 8363   0.608   0.807   7.688
 1172SOL    HW2 8364   0.544   0.721   7.795
 1173SOL     OW 8365   1.329   0.329   8.416
 1173SOL    HW1 8366   1.235   0.322   8.396
 1173SOL    HW2 8367   1.344   0.263   8.484
 1174SOL     OW 8368   1.564   1.698   7.745
 1174SOL    HW1 8369   1.658   1.696   7.727
 1174SOL    HW2 8370   1.523   1.685   7.660
 1175SOL     OW 8371   0.745   0.658   8.912
 1175SOL    HW1 8372   0.715   0.611   8.989
 1175SOL    HW2 8373   0.744   0.593   8.842
 1176SOL     OW 8374   1.396   0.482   9.126
 1176SOL    HW1 8375   1.402   0.523   9.213
 1176SOL    HW2 8376   1.450   0.403   9.133
 1177SOL     OW 8377   0.923   0.845   9.026
 1177SOL    HW1 8378   1.004   0.818   8.983
 1177SOL    HW2 8379   0.857   0.784   8.994
 1178SOL     OW 8380   1.004   0.458   8.664
 1178SOL    HW1 8381   0.912   0.455   8.690
 1178SOL    HW2 8382   1.008   0.410   8.581
 1179SOL     OW 8383   1.075   0.718   7.857
 1179SOL    HW1 8384   1.097   0.715   7.950
 1179SOL    HW2 8385   0.990   0.674   7.852
 1180SOL     OW 8386   0.076   0.740   8.293
 1180SOL    HW1 8387   0.168   0.756   8.313
 1180SOL    HW2 8388   0.028   0.794   8.356
 1181SOL     OW 8389   0.088   1.843   9.047
 1181SOL    HW1 8390   0.098   1.861   9.140
 1181SOL    HW2 8391   0.028   1.911   9.016
 1182SOL     OW 8392   0.923   0.385   7.627
 1182SOL    HW1 8393   0.945   0.455   7.566
 1182SOL    HW2 8394   0.970   0.308   7.594
 1183SOL     OW 8395   1.667   0.556   9.266
 1183SOL    HW1 8396   1.659   0.640   9.221
 1183SOL    HW2 8397   1.704   0.497   9.201
 1184SOL     OW 8398   0.566   0.180   8.396
 1184SOL    HW1 8399   0.574   0.203   8.488
 1184SOL    HW2 8400   0.574   0.264   8.350
 1185SOL     OW 8401   1.002   1.472   7.923
 1185SOL    HW1 8402   0.983   1.539   7.856
 1185SOL    HW2 8403   0.964   1.508   8.003
 1186SOL     OW 8404   0.317   1.773   8.369
 1186SOL    HW1 8405   0.378   1.700   8.362
 1186SOL    HW2 8406   0.329   1.823   8.288
 1187SOL     OW 8407   1.216   1.556   8.965
 1187SOL    HW1 8408   1.185   1.482   9.018
 1187SOL    HW2 8409   1.137   1.589   8.922
 1188SOL     OW 8410   0.319   0.959   7.675
 1188SOL    HW1 8411   0.411   0.973   7.650
 1188SOL    HW2 8412   0.276   0.936   7.592
 1189SOL     OW 8413   0.488   1.275   9.172
 1189SOL    HW1 8414   0.452   1.282   9.084
 1189SOL    HW2 8415   0.410   1.278   9.229
 1190SOL     OW 8416   1.160   1.752   7.653
 1190SOL    HW1 8417   1.076   1.723   7.688
 1190SOL    HW2 8418   1.170   1.704   7.571
 1191SOL     OW 8419   0.196   0.273   8.966
 1191SOL    HW1 8420   0.161   0.362   8.956
 1191SOL    HW2 8421   0.174   0.249   9.056
 1192SOL     OW 8422   1.642   1.429   7.548
 1192SOL    HW1 8423   1.591   1.504   7.518
 1192SOL    HW2 8424   1.583   1.354   7.536
 1193SOL     OW 8425   0.484   1.769   7.694
 1193SOL    HW1 8426   0.515   1.793   7.782
 1193SOL    HW2 8427   0.558   1.724   7.654
 1194SOL     OW 8428   1.363   0.104   7.872
 1194SOL    HW1 8429   1.361   0.088   7.777
 1194SOL    HW2 8430   1.433   0.046   7.904
 1195SOL     OW 8431   0.253   1.778   8.642
 1195SOL    HW1 8432   0.289   1.695   8.676
 1195SOL    HW2 8433   0.272   1.775   8.548
 1196SOL     OW 8434   0.969   1.703   8.325
 1196SOL    HW1 8435   1.053   1.657   8.327
 1196SOL    HW2 8436   0.918   1.656   8.259
 1197SOL     OW 8437   0.426   0.669   7.929
 1197SOL    HW1 8438   0.468   0.586   7.950
 1197SOL    HW2 8439   0.340   0.664   7.971
 1198SOL     OW 8440   1.527   0.241   9.180
 1198SOL    HW1 8441   1.517   0.259   9.274
 1198SOL    HW2 8442   1.510   0.147   9.173
 1199SOL     OW 8443   0.629   0.103   7.560
 1199SOL    HW1 8444   0.668   0.029   7.606
 1199SOL    HW2 8445   0.582   0.063   7.486
 1200SOL     OW 8446   0.772   0.303   9.197
 1200SOL    HW1 8447   0.843   0.242   9.181
 1200SOL    HW2 8448   0.765   0.307   9.293
 1201SOL     OW 8449   0.870   1.519   8.642
 1201SOL    HW1 8450   0.847   1.499   8.551
 1201SOL    HW2 8451   0.939   1.456   8.664
 1202SOL     OW 8452   1.325   0.617   8.893
 1202SOL    HW1 8453   1.359   0.582   8.975
 1202SOL    HW2 8454   1.377   0.696   8.877
 1203SOL     OW 8455   0.823   1.406   8.386
 1203SOL    HW1 8456   0.908   1.387   8.347
 1203SOL    HW2 8457   0.763   1.413   8.311
 1204SOL     OW 8458   0.956   0.528   8.336
 1204SOL    HW1 8459   0.926   0.516   8.246
 1204SOL    HW2 8460   0.983   0.441   8.364
 1205SOL     OW 8461   0.596   0.038   7.923
 1205SOL    HW1 8462   0.512   0.019   7.964
 1205SOL    HW2 8463   0.581   0.117   7.872
 1206SOL     OW 8464   1.460   1.214   7.515
 1206SOL    HW1 8465   1.494   1.146   7.574
 1206SOL    HW2 8466   1.368   1.223   7.542
 1207SOL     OW 8467   0.363   9.908   7.563
 1207SOL    HW1 8468   0.403   9.931   7.479
 1207SOL    HW2 8469   0.377   9.984   7.619
 1208SOL     OW 8470   0.940   0.283   7.890
 1208SOL    HW1 8471   0.916   0.313   7.803
 1208SOL    HW2 8472   1.034   0.299   7.897
 1209SOL     OW 8473   1.069   0.690   8.821
 1209SOL    HW1 8474   1.041   0.611   8.776
 1209SOL    HW2 8475   1.158   0.672   8.849
 1210SOL     OW 8476   1.209   1.571   8.251
 1210SOL    HW1 8477   1.231   1.632   8.181
 1210SOL    HW2 8478   1.294   1.537   8.281
 1211SOL     OW 8479   0.484   1.154   8.154
 1211SOL    HW1 8480   0.418   1.127   8.218
 1211SOL    HW2 8481   0.440   1.146   8.069
 1212SOL     OW 8482   1.247   1.788   8.055
 1212SOL    HW1 8483   1.277   1.845   7.985
 1212SOL    HW2 8484   1.177   1.837   8.098
 1213SOL     OW 8485   1.075   0.569   7.477
 1213SOL    HW1 8486   1.107   0.655   7.448
 1213SOL    HW2 8487   1.123   0.551   7.557
 1214SOL     OW 8488   0.143   0.542   8.878
 1214SOL    HW1 8489   0.224   0.562   8.831
 1214SOL    HW2 8490   0.128   0.618   8.934
 1215SOL     OW 8491   0.579   0.243   8.665
 1215SOL    HW1 8492   0.631   0.197   8.730
 1215SOL    HW2 8493   0.488   0.231   8.693
 1216SOL     OW 8494   0.864   0.479   8.081
 1216SOL    HW1 8495   0.834   0.536   8.011
 1216SOL    HW2 8496   0.887   0.397   8.037
 1217SOL     OW 8497   0.959   0.062   8.269
 1217SOL    HW1 8498   0.921   0.055   8.182
 1217SOL    HW2 8499   0.971   9.971   8.297
 1218SOL     OW 8500   1.408   0.579   8.526
 1218SOL    HW1 8501   1.383   0.493   8.493
 1218SOL    HW2 8502   1.495   0.565   8.564
 1219SOL     OW 8503   1.873   0.832   7.813
 1219SOL    HW1 8504   1.916   0.797   7.891
 1219SOL    HW2 8505   1.785   0.856   7.842
 1220SOL     OW 8506   0.517   1.430   7.602
 1220SOL    HW1 8507   0.455   1.415   7.673
 1220SOL    HW2 8508   0.484   1.379   7.529
 1221SOL     OW 8509   1.398   0.555   7.518
 1221SOL    HW1 8510   1.338   0.552   7.593
 1221SOL    HW2 8511   1.456   0.480   7.531
 1222SOL     OW 8512   0.547   0.273   7.757
 1222SOL    HW1 8513   0.585   0.215   7.691
 1222SOL    HW2 8514   0.534   0.356   7.713
 1223SOL     OW 8515   1.744   1.262   8.996
 1223SOL    HW1 8516   1.832   1.229   8.978
 1223SOL    HW2 8517   1.758   1.354   9.021
 1224SOL     OW 8518   1.077   1.356   8.771
 1224SOL    HW1 8519   1.026   1.378   8.849
 1224SOL    HW2 8520   1.153   1.309   8.804
 1225SOL     OW 8521   1.637   1.626   9.095
 1225SOL    HW1 8522   1.620   1.675   9.014
 1225SOL    HW2 8523   1.726   1.593   9.084
 1226SOL     OW 8524   1.077   1.176   8.562
 1226SOL    HW1 8525   1.100   1.249   8.620
 1226SOL    HW2 8526   1.078   1.213   8.474
 1227SOL     OW 8527   1.549   1.190   8.456
 1227SOL    HW1 8528   1.570   1.218   8.545
 1227SOL    HW2 8529   1.488   1.117   8.466
 1228SOL     OW 8530   0.872   0.168   8.791
 1228SOL    HW1 8531   0.909   0.120   8.717
 1228SOL    HW2 8532   0.948   0.200   8.839
 1229SOL     OW 8533   0.963   1.102   9.143
 1229SOL    HW1 8534   0.882   1.115   9.191
 1229SOL    HW2 8535   0.954   1.014   9.105
 1230SOL     OW 8536   0.737   1.068   7.834
 1230SOL    HW1 8537   0.720   1.036   7.923
 1230SOL    HW2 8538   0.812   1.017   7.803
 1231SOL     OW 8539   0.407   0.859   8.700
 1231SOL    HW1 8540   0.463   0.881   8.775
 1231SOL    HW2 8541   0.392   0.765   8.709
 1232SOL     OW 8542   1.258   0.393   8.748
 1232SOL    HW1 8543   1.296   0.471   8.789
 1232SOL    HW2 8544   1.176   0.424   8.711
 1233SOL     OW 8545   0.072   1.538   8.817
 1233SOL    HW1 8546   0.054   1.630   8.836
 1233SOL    HW2 8547   0.166   1.535   8.799
 1234SOL     OW 8548   0.350   1.125   7.908
 1234SOL    HW1 8549   0.350   1.209   7.863
 1234SOL    HW2 8550   0.337   1.061   7.839
 1235SOL     OW 8551   0.583   0.443   8.306
 1235SOL    HW1 8552   0.596   0.464   8.214
 1235SOL    HW2 8553   0.637   0.507   8.353
 1236SOL     OW 8554   1.216   1.338   7.810
 1236SOL    HW1 8555   1.294   1.350   7.865
 1236SOL    HW2 8556   1.146   1.383   7.858
 1237SOL     OW 8557   1.286   1.485   8.610
 1237SOL    HW1 8558   1.351   1.494   8.680
 1237SOL    HW2 8559   1.207   1.454   8.655
 1238SOL     OW 8560   1.598   0.641   7.938
 1238SOL    HW1 8561   1.578   0.650   8.031
 1238SOL    HW2 8562   1.614   0.731   7.909
 1239SOL     OW 8563   0.338   1.522   8.744
 1239SOL    HW1 8564   0.333   1.476   8.659
 1239SOL    HW2 8565   0.429   1.547   8.752
 1240SOL     OW 8566   0.430   0.721   9.086
 1240SOL    HW1 8567   0.474   0.773   9.018
 1240SOL    HW2 8568   0.494   0.654   9.110
 1241SOL     OW 8569   1.630   0.803   9.153
 1241SOL    HW1 8570   1.542   0.838   9.143
 1241SOL    HW2 8571   1.679   0.839   9.079
 1242SOL     OW 8572   0.982   0.128   9.175
 1242SOL    HW1 8573   1.055   0.190   9.176
 1242SOL    HW2 8574   1.015   0.053   9.125
 1243SOL     OW 8575   0.553   0.051   9.171
 1243SOL    HW1 8576   0.585   0.088   9.088
 1243SOL    HW2 8577   0.491   0.116   9.204
 1244SOL     OW 8578   0.621   0.876   8.514
 1244SOL    HW1 8579   0.592   0.929   8.440
 1244SOL    HW2 8580   0.546   0.871   8.572
 1245SOL     OW 8581   1.339   0.810   8.403
 1245SOL    HW1 8582   1.393   0.802   8.325
 1245SOL    HW2 8583   1.361   0.732   8.455
 1246SOL     OW 8584   1.208   0.527   7.714
 1246SOL    HW1 8585   1.214   0.451   7.772
 1246SOL    HW2 8586   1.169   0.596   7.768
 1247SOL     OW 8587   0.317   0.175   8.738
 1247SOL    HW1 8588   0.274   0.200   8.820
 1247SOL    HW2 8589   0.328   0.080   8.744
 1248SOL     OW 8590   0.723   0.622   8.467
 1248SOL    HW1 8591   0.806   0.622   8.419
 1248SOL    HW2 8592   0.696   0.713   8.467
 1249SOL     OW 8593   1.802   0.958   9.313
 1249SOL    HW1 8594   1.738   0.900   9.271
 1249SOL    HW2 8595   1.787   0.945   9.407
 1250SOL     OW 8596   0.340   0.021   8.020
 1250SOL    HW1 8597   0.314   0.098   7.970
 1250SOL    HW2 8598   0.259   9.970   8.029
 1251SOL     OW 8599   1.671   0.418   7.792
 1251SOL    HW1 8600   1.688   0.357   7.864
 1251SOL    HW2 8601   1.644   0.499   7.834
 1252SOL     OW 8602   1.050   0.786   8.376
 1252SOL    HW1 8603   1.141   0.789   8.403
 1252SOL    HW2 8604   1.026   0.693   8.378
 1253SOL     OW 8605   0.951   1.595   9.140
 1253SOL    HW1 8606   0.962   1.625   9.050
 1253SOL    HW2 8607   0.977   1.503   9.138
 1254SOL     OW 8608   1.895   1.525   9.052
 1254SOL    HW1 8609   1.951   1.558   8.982
 1254SOL    HW2 8610   1.953   1.523   9.129
 1255SOL     OW 8611   0.359   0.913   9.279
 1255SOL    HW1 8612   0.430   0.937   9.339
 1255SOL    HW2 8613   0.397   0.843   9.224
 1256SOL     OW 8614   1.519   0.317   7.591
 1256SOL    HW1 8615   1.463   0.250   7.631
 1256SOL    HW2 8616   1.571   0.351   7.664
 1257SOL     OW 8617   1.264   0.788   7.449
 1257SOL    HW1 8618   1.322   0.713   7.464
 1257SOL    HW2 8619   1.301   0.832   7.373
 1258SOL     OW 8620   1.081   1.330   8.326
 1258SOL    HW1 8621   1.109   1.257   8.270
 1258SOL    HW2 8622   1.128   1.406   8.293
 1259SOL     OW 8623   0.340   0.781   8.359
 1259SOL    HW1 8624   0.408   0.779   8.292
 1259SOL    HW2 8625   0.351   0.700   8.408
 1260SOL     OW 8626   0.369   0.525   8.465
 1260SOL    HW1 8627   0.306   0.454   8.473
 1260SOL    HW2 8628   0.436   0.492   8.405
 1261SOL     OW 8629   1.153   0.350   9.150
 1261SOL    HW1 8630   1.104   0.419   9.196
 1261SOL    HW2 8631   1.239   0.388   9.135
 1262SOL     OW 8632   1.114   0.224   8.910
 1262SOL    HW1 8633   1.121   0.268   8.995
 1262SOL    HW2 8634   1.170   0.275   8.851
 1263SOL     OW 8635   0.103   1.324   7.648
 1263SOL    HW1 8636   0.110   1.311   7.554
 1263SOL    HW2 8637   0.078   1.238   7.683
 1264SOL     OW 8638   0.051   1.737   8.291
 1264SOL    HW1 8639   0.070   1.732   8.198
 1264SOL    HW2 8640   0.137   1.748   8.332
 1265SOL     OW 8641   0.503   1.568   8.357
 1265SOL    HW1 8642   0.572   1.632   8.375
 1265SOL    HW2 8643   0.541   1.510   8.291
 1266SOL     OW 8644   0.900   0.872   8.698
 1266SOL    HW1 8645   0.961   0.812   8.741
 1266SOL    HW2 8646   0.836   0.815   8.656
 1267SOL     OW 8647   0.008   0.428   8.666
 1267SOL    HW1 8648   0.080   0.404   8.608
 1267SOL    HW2 8649   0.049   0.478   8.737
 1268SOL     OW 8650   0.211   0.521   9.198
 1268SOL    HW1 8651   0.301   0.495   9.180
 1268SOL    HW2 8652   0.196   0.597   9.141
 1269SOL     OW 8653   1.391   0.925   9.085
 1269SOL    HW1 8654   1.411   1.018   9.088
 1269SOL    HW2 8655   1.393   0.903   8.992
 1270SOL     OW 8656   0.836   0.587   7.817
 1270SOL    HW1 8657   0.849   0.518   7.752
 1270SOL    HW2 8658   0.760   0.636   7.785
 1271SOL     OW 8659   1.664   0.541   8.637
 1271SOL    HW1 8660   1.676   0.475   8.705
 1271SOL    HW2 8661   1.751   0.550   8.597
 1272SOL     OW 8662   0.271   1.575   9.192
 1272SOL    HW1 8663   0.217   1.620   9.258
 1272SOL    HW2 8664   0.262   1.482   9.214
 1273SOL     OW 8665   0.730   0.479   8.700
 1273SOL    HW1 8666   0.676   0.399   8.692
 1273SOL    HW2 8667   0.716   0.526   8.618
 1274SOL     OW 8668   0.973   1.655   8.869
 1274SOL    HW1 8669   0.929   1.618   8.792
 1274SOL    HW2 8670   0.957   1.749   8.863
 1275SOL     OW 8671   0.499   0.500   7.596
 1275SOL    HW1 8672   0.557   0.566   7.633
 1275SOL    HW2 8673   0.412   0.542   7.597
 1276SOL     OW 8674   0.126   1.161   8.880
 1276SOL    HW1 8675   0.140   1.127   8.968
 1276SOL    HW2 8676   0.136   1.085   8.822
 1277SOL     OW 8677   1.314   1.012   8.598
 1277SOL    HW1 8678   1.320   0.945   8.530
 1277SOL    HW2 8679   1.231   1.057   8.580
 1278SOL     OW 8680   1.290   0.873   7.721
 1278SOL    HW1 8681   1.231   0.821   7.776
 1278SOL    HW2 8682   1.281   0.834   7.634
 1279SOL     OW 8683   1.749   1.713   8.623
 1279SOL    HW1 8684   1.840   1.701   8.652
 1279SOL    HW2 8685   1.728   1.632   8.578
 1280SOL     OW 8686   1.263   1.760   8.550
 1280SOL    HW1 8687   1.354   1.786   8.533
 1280SOL    HW2 8688   1.267   1.665   8.563
 1281SOL     OW 8689   0.060   1.164   8.465
 1281SOL    HW1 8690   0.017   1.216   8.532
 1281SOL    HW2 8691   0.082   1.227   8.396
 1282SOL     OW 8692   0.693   1.655   9.199
 1282SOL    HW1 8693   0.667   1.741   9.166
 1282SOL    HW2 8694   0.788   1.652   9.183
 1283SOL     OW 8695   1.739   0.230   7.992
 1283SOL    HW1 8696   1.808   0.200   7.934
 1283SOL    HW2 8697   1.709   0.151   8.037
 1284SOL     OW 8698   1.441   1.591   7.981
 1284SOL    HW1 8699   1.468   1.606   7.890
 1284SOL    HW2 8700   1.363   1.646   7.992
 1285SOL     OW 8701   0.124   1.848   9.325
 1285SOL    HW1 8702   0.092   1.777   9.381
 1285SOL    HW2 8703   0.193   1.889   9.376
 1286SOL     OW 8704   1.342   0.903   8.076
 1286SOL    HW1 8705   1.409   0.845   8.113
 1286SOL    HW2 8706   1.384   0.942   7.999
 1287SOL     OW 8707   0.765   1.233   8.825
 1287SOL    HW1 8708   0.759   1.282   8.907
 1287SOL    HW2 8709   0.687   1.257   8.776
 1288SOL     OW 8710   0.699   1.636   7.569
 1288SOL    HW1 8711   0.720   1.639   7.476
 1288SOL    HW2 8712   0.642   1.560   7.579
 1289SOL     OW 8713   1.593   1.757   8.853
 1289SOL    HW1 8714   1.654   1.752   8.779
 1289SOL    HW2 8715   1.581   1.851   8.868
 1290SOL     OW 8716   0.302   0.371   8.145
 1290SOL    HW1 8717   0.268   0.459   8.130
 1290SOL    HW2 8718   0.225   0.315   8.146
 1291SOL     OW 8719   1.199   1.624   7.410
 1291SOL    HW1 8720   1.187   1.535   7.378
 1291SOL    HW2 8721   1.165   1.680   7.341
 1292SOL     OW 8722   0.941   0.927   7.729
 1292SOL    HW1 8723   0.988   0.944   7.648
 1292SOL    HW2 8724   0.995   0.862   7.774
 1293SOL     OW 8725   1.480   1.654   7.478
 1293SOL    HW1 8726   1.386   1.638   7.463
 1293SOL    HW2 8727   1.503   1.719   7.412
 1294SOL     OW 8728   0.362   1.309   8.933
 1294SOL    HW1 8729   0.358   1.387   8.879
 1294SOL    HW2 8730   0.285   1.258   8.908
 1295SOL     OW 8731   1.592   1.304   8.707
 1295SOL    HW1 8732   1.675   1.309   8.755
 1295SOL    HW2 8733   1.535   1.366   8.752
 1296SOL     OW 8734   1.145   1.095   8.202
 1296SOL    HW1 8735   1.063   1.047   8.209
 1296SOL    HW2 8736   1.205   1.034   8.157
 1297SOL     OW 8737   1.038   0.270   8.436
 1297SOL    HW1 8738   1.007   0.217   8.363
 1297SOL    HW2 8739   1.050   0.208   8.507
 1298SOL     OW 8740   0.616   1.489   7.926
 1298SOL    HW1 8741   0.671   1.442   7.863
 1298SOL    HW2 8742   0.529   1.492   7.885
 1299SOL     OW 8743   1.777   0.344   8.808
 1299SOL    HW1 8744   1.845   0.409   8.825
 1299SOL    HW2 8745   1.815   0.284   8.745
 1300SOL     OW 8746   0.325   1.388   7.802
 1300SOL    HW1 8747   0.247   1.374   7.749
 1300SOL    HW2 8748   0.292   1.416   7.887
 1301SOL     OW 8749   0.173   1.074   9.140
 1301SOL    HW1 8750   0.101   1.030   9.185
 1301SOL    HW2 8751   0.252   1.035   9.177
 1302SOL     OW 8752   0.660   0.213   8.961
 1302SOL    HW1 8753   0.735   0.189   8.908
 1302SOL    HW2 8754   0.698   0.251   9.040
 1303SOL     OW 8755   0.017   0.357   7.445
 1303SOL    HW1 8756   9.938   0.396   7.484
 1303SOL    HW2 8757   0.049   0.424   7.385
 1304SOL     OW 8758   1.429   0.869   8.816
 1304SOL    HW1 8759   1.379   0.912   8.747
 1304SOL    HW2 8760   1.515   0.854   8.776
 1305SOL     OW 8761   0.059   0.090   7.724
 1305SOL    HW1 8762   9.995   0.148   7.766
 1305SOL    HW2 8763   0.143   0.119   7.758
 1306SOL     OW 8764   1.151   1.232   7.569
 1306SOL    HW1 8765   1.062   1.267   7.560
 1306SOL    HW2 8766   1.181   1.263   7.655
 1307SOL     OW 8767   0.583   0.877   8.912
 1307SOL    HW1 8768   0.634   0.950   8.948
 1307SOL    HW2 8769   0.646   0.806   8.901
 1308SOL     OW 8770   1.528   1.840   8.508
 1308SOL    HW1 8771   1.568   1.882   8.433
 1308SOL    HW2 8772   1.601   1.800   8.555
 1309SOL     OW 8773   0.654   0.560   9.152
 1309SOL    HW1 8774   0.708   0.613   9.211
 1309SOL    HW2 8775   0.678   0.470   9.171
 1310SOL     OW 8776   1.479   1.192   9.048
 1310SOL    HW1 8777   1.462   1.251   9.121
 1310SOL    HW2 8778   1.570   1.208   9.025
 1311SOL     OW 8779   0.352   1.760   9.006
 1311SOL    HW1 8780   0.264   1.795   8.997
 1311SOL    HW2 8781   0.342   1.682   9.061
 1312SOL     OW 8782   1.674   0.818   8.693
 1312SOL    HW1 8783   1.663   0.724   8.680
 1312SOL    HW2 8784   1.731   0.845   8.621
 1313SOL     OW 8785   1.210   0.328   7.905
 1313SOL    HW1 8786   1.274   0.256   7.901
 1313SOL    HW2 8787   1.227   0.369   7.990
 1314SOL     OW 8788   0.534   0.778   8.166
 1314SOL    HW1 8789   0.599   0.843   8.140
 1314SOL    HW2 8790   0.500   0.743   8.083
 1315SOL     OW 8791   1.757   0.357   9.091
 1315SOL    HW1 8792   1.763   0.350   8.996
 1315SOL    HW2 8793   1.679   0.307   9.115
 1316SOL     OW 8794   1.750   0.927   8.939
 1316SOL    HW1 8795   1.747   1.022   8.934
 1316SOL    HW2 8796   1.727   0.897   8.851
 1317SOL     OW 8797   0.890   1.333   7.529
 1317SOL    HW1 8798   0.850   1.344   7.615
 1317SOL    HW2 8799   0.891   1.421   7.492
 1318SOL     OW 8800   0.694   1.758   8.383
 1318SOL    HW1 8801   0.667   1.848   8.364
 1318SOL    HW2 8802   0.788   1.758   8.371
 1319SOL     OW 8803   0.883   0.997   8.304
 1319SOL    HW1 8804   0.933   0.923   8.338
 1319SOL    HW2 8805   0.845   1.037   8.382
 1320SOL     OW 8806   1.068   0.984   7.483
 1320SOL    HW1 8807   1.112   1.062   7.515
 1320SOL    HW2 8808   1.139   0.920   7.471
 1321SOL     OW 8809   1.862   1.567   8.307
 1321SOL    HW1 8810   1.799   1.548   8.238
 1321SOL    HW2 8811   1.823   1.529   8.386
 1322SOL     OW 8812   0.235   1.314   9.290
 1322SOL    HW1 8813   0.196   1.256   9.225
 1322SOL    HW2 8814   0.174   1.313   9.364
 1323SOL     OW 8815   0.152   1.164   8.107
 1323SOL    HW1 8816   0.195   1.114   8.176
 1323SOL    HW2 8817   0.202   1.144   8.028
 1324SOL     OW 8818   0.709   1.395   9.047
 1324SOL    HW1 8819   0.634   1.353   9.090
 1324SOL    HW2 8820   0.711   1.484   9.083
 1325SOL     OW 8821   0.531   0.430   8.007
 1325SOL    HW1 8822   0.551   0.362   7.942
 1325SOL    HW2 8823   0.460   0.393   8.059
 1326SOL     OW 8824   1.747   1.456   8.524
 1326SOL    HW1 8825   1.666   1.406   8.531
 1326SOL    HW2 8826   1.794   1.436   8.605
 1327SOL     OW 8827   0.374   0.590   8.736
 1327SOL    HW1 8828   0.419   0.523   8.789
 1327SOL    HW2 8829   0.384   0.560   8.646
 1328SOL     OW 8830   0.835   1.618   8.097
 1328SOL    HW1 8831   0.832   1.702   8.052
 1328SOL    HW2 8832   0.753   1.574   8.072
 1329SOL     OW 8833   1.350   0.161   8.640
 1329SOL    HW1 8834   1.420   0.126   8.695
 1329SOL    HW2 8835   1.323   0.242   8.684
 1330SOL     OW 8836   1.084   0.065   8.618
 1330SOL    HW1 8837   1.075   9.970   8.622
 1330SOL    HW2 8838   1.178   0.081   8.628
 1331SOL     OW 8839   0.798   1.333   7.787
 1331SOL    HW1 8840   0.775   1.242   7.806
 1331SOL    HW2 8841   0.874   1.351   7.843
 1332SOL     OW 8842   0.608   1.576   8.726
 1332SOL    HW1 8843   0.600   1.666   8.758
 1332SOL    HW2 8844   0.699   1.568   8.699
 1333SOL     OW 8845   1.352   0.064   7.594
 1333SOL    HW1 8846   1.417   0.044   7.526
 1333SOL    HW2 8847   1.312   9.980   7.614
 1334SOL     OW 8848   1.247   0.452   8.145
 1334SOL    HW1 8849   1.214   0.541   8.136
 1334SOL    HW2 8850   1.299   0.454   8.225
 1335SOL     OW 8851   0.058   1.067   7.722
 1335SOL    HW1 8852   0.140   1.018   7.721
 1335SOL    HW2 8853   9.998   1.016   7.667
 1336SOL     OW 8854   0.907   1.674   7.757
 1336SOL    HW1 8855   0.834   1.659   7.697
 1336SOL    HW2 8856   0.875   1.740   7.817
 1337SOL     OW 8857   0.283   0.551   9.467
 1337SOL    HW1 8858   0.222   0.586   9.533
 1337SOL    HW2 8859   0.241   0.569   9.383
 1338SOL     OW 8860   1.797   0.572   9.503
 1338SOL    HW1 8861   1.755   0.562   9.417
 1338SOL    HW2 8862   1.743   0.519   9.562
 1339SOL     OW 8863   0.325   1.694   9.754
 1339SOL    HW1 8864   0.269   1.769   9.773
 1339SOL    HW2 8865   0.274   1.618   9.785
 1340SOL     OW 8866   0.154   1.496   9.856
 1340SOL    HW1 8867   0.144   1.545   9.938
 1340SOL    HW2 8868   0.130   1.406   9.879
 1341SOL     OW 8869   0.576   0.975   9.441
 1341SOL    HW1 8870   0.626   1.031   9.381
 1341SOL    HW2 8871   0.631   0.968   9.518
 1342SOL     OW 8872   1.861   1.727   9.638
 1342SOL    HW1 8873   1.925   1.684   9.695
 1342SOL    HW2 8874   1.879   1.820   9.647
 1343SOL     OW 8875   0.025   1.635   9.468
 1343SOL    HW1 8876   9.987   1.584   9.397
 1343SOL    HW2 8877   9.994   1.592   9.548
 1344SOL     OW 8878   1.674   0.835   9.891
 1344SOL    HW1 8879   1.742   0.824   9.957
 1344SOL    HW2 8880   1.677   0.928   9.867
 1345SOL     OW 8881   1.745   1.099   9.818
 1345SOL    HW1 8882   1.819   1.103   9.758
 1345SOL    HW2 8883   1.779   1.129   9.902
 1346SOL     OW 8884   0.677   1.317   9.897
 1346SOL    HW1 8885   0.608   1.277   9.949
 1346SOL    HW2 8886   0.636   1.394   9.858
 1347SOL     OW 8887   0.771   9.995   9.775
 1347SOL    HW1 8888   0.798   0.086   9.760
 1347SOL    HW2 8889   0.676   9.997   9.772
 1348SOL     OW 8890   1.580   0.975   9.625
 1348SOL    HW1 8891   1.644   0.905   9.619
 1348SOL    HW2 8892   1.616   1.036   9.688
 1349SOL     OW 8893   1.583   1.716   9.572
 1349SOL    HW1 8894   1.676   1.712   9.593
 1349SOL    HW2 8895   1.575   1.672   9.487
 1350SOL     OW 8896   0.093   0.747   0.088
 1350SOL    HW1 8897   0.137   0.675   0.043
 1350SOL    HW2 8898   0.163   0.794   0.133
 1351SOL     OW 8899   0.852   0.236   9.456
 1351SOL    HW1 8900   0.830   0.242   9.549
 1351SOL    HW2 8901   0.945   0.258   9.451
 1352SOL     OW 8902   1.338   1.163   9.760
 1352SOL    HW1 8903   1.366   1.180   9.850
 1352SOL    HW2 8904   1.292   1.243   9.734
 1353SOL     OW 8905   1.029   1.495   9.811
 1353SOL    HW1 8906   0.975   1.553   9.757
 1353SOL    HW2 8907   0.971   1.467   9.882
 1354SOL     OW 8908   0.315   1.763   0.166
 1354SOL    HW1 8909   0.236   1.710   0.158
 1354SOL    HW2 8910   0.284   1.850   0.191
 1355SOL     OW 8911   0.320   0.886   9.653
 1355SOL    HW1 8912   0.394   0.873   9.594
 1355SOL    HW2 8913   0.317   0.805   9.705
 1356SOL     OW 8914   1.184   1.719   9.584
 1356SOL    HW1 8915   1.091   1.710   9.606
 1356SOL    HW2 8916   1.189   1.696   9.492
 1357SOL     OW 8917   1.641   1.378   9.454
 1357SOL    HW1 8918   1.600   1.449   9.405
 1357SOL    HW2 8919   1.573   1.347   9.513
 1358SOL     OW 8920   0.512   1.789   9.562
 1358SOL    HW1 8921   0.455   1.759   9.632
 1358SOL    HW2 8922   0.575   1.719   9.550
 1359SOL     OW 8923   1.471   0.096   9.842
 1359SOL    HW1 8924   1.430   0.103   9.756
 1359SOL    HW2 8925   1.542   0.160   9.839
 1360SOL     OW 8926   0.663   0.042   9.426
 1360SOL    HW1 8927   0.732   0.108   9.419
 1360SOL    HW2 8928   0.622   0.041   9.339
 1361SOL     OW 8929   0.347   0.009   9.502
 1361SOL    HW1 8930   0.432   0.045   9.528
 1361SOL    HW2 8931   0.284   0.060   9.552
 1362SOL     OW 8932   0.453   1.216   0.038
 1362SOL    HW1 8933   0.383   1.232   0.102
 1362SOL    HW2 8934   0.408   1.176   9.963
 1363SOL     OW 8935   1.302   1.844   9.890
 1363SOL    HW1 8936   1.335   1.881   9.972
 1363SOL    HW2 8937   1.233   1.785   9.917
 1364SOL     OW 8938   1.069   0.567   9.295
 1364SOL    HW1 8939   0.980   0.603   9.292
 1364SOL    HW2 8940   1.126   0.645   9.291
 1365SOL     OW 8941   1.821   0.822   9.610
 1365SOL    HW1 8942   1.857   0.795   9.695
 1365SOL    HW2 8943   1.815   0.741   9.560
 1366SOL     OW 8944   0.484   1.431   9.488
 1366SOL    HW1 8945   0.418   1.389   9.543
 1366SOL    HW2 8946   0.457   1.411   9.398
 1367SOL     OW 8947   1.413   0.591   9.386
 1367SOL    HW1 8948   1.392   0.557   9.473
 1367SOL    HW2 8949   1.506   0.571   9.375
 1368SOL     OW 8950   0.550   0.141   9.659
 1368SOL    HW1 8951   0.597   0.107   9.582
 1368SOL    HW2 8952   0.592   0.226   9.676
 1369SOL     OW 8953   0.777   0.979   9.639
 1369SOL    HW1 8954   0.795   0.954   9.730
 1369SOL    HW2 8955   0.832   0.921   9.587
 1370SOL     OW 8956   0.319   1.117   9.817
 1370SOL    HW1 8957   0.319   1.186   9.752
 1370SOL    HW2 8958   0.324   1.036   9.766
 1371SOL     OW 8959   1.221   1.390   9.648
 1371SOL    HW1 8960   1.289   1.452   9.674
 1371SOL    HW2 8961   1.144   1.414   9.699
 1372SOL     OW 8962   1.522   0.608   9.840
 1372SOL    HW1 8963   1.499   0.589   9.930
 1372SOL    HW2 8964   1.574   0.689   9.844
 1373SOL     OW 8965   1.307   0.561   9.666
 1373SOL    HW1 8966   1.378   0.571   9.731
 1373SOL    HW2 8967   1.278   0.651   9.649
 1374SOL     OW 8968   1.613   0.429   9.650
 1374SOL    HW1 8969   1.657   0.359   9.700
 1374SOL    HW2 8970   1.582   0.490   9.717
 1375SOL     OW 8971   1.487   0.292   9.445
 1375SOL    HW1 8972   1.450   0.217   9.493
 1375SOL    HW2 8973   1.533   0.343   9.511
 1376SOL     OW 8974   1.251   0.792   9.291
 1376SOL    HW1 8975   1.314   0.727   9.323
 1376SOL    HW2 8976   1.293   0.831   9.215
 1377SOL     OW 8977   0.055   1.295   9.506
 1377SOL    HW1 8978   9.981   1.330   9.555
 1377SOL    HW2 8979   0.053   1.201   9.523
 1378SOL     OW 8980   0.533   0.420   9.454
 1378SOL    HW1 8981   0.579   0.413   9.538
 1378SOL    HW2 8982   0.458   0.477   9.473
 1379SOL     OW 8983   1.216   0.811   9.588
 1379SOL    HW1 8984   1.138   0.794   9.640
 1379SOL    HW2 8985   1.187   0.802   9.497
 1380SOL     OW 8986   1.744   0.221   9.772
 1380SOL    HW1 8987   1.794   0.190   9.697
 1380SOL    HW2 8988   1.809   0.258   9.831
 1381SOL     OW 8989   1.398   1.556   9.787
 1381SOL    HW1 8990   1.478   1.518   9.823
 1381SOL    HW2 8991   1.335   1.555   9.860
 1382SOL     OW 8992   0.699   1.599   9.467
 1382SOL    HW1 8993   0.693   1.624   9.375
 1382SOL    HW2 8994   0.631   1.533   9.478
 1383SOL     OW 8995   1.834   0.119   0.260
 1383SOL    HW1 8996   1.815   0.031   0.229
 1383SOL    HW2 8997   1.768   0.175   0.218
 1384SOL     OW 8998   1.226   1.634   9.322
 1384SOL    HW1 8999   1.183   1.549   9.326
 1384SOL    HW2 9000   1.181   1.681   9.251
 1385SOL     OW 9001   1.508   1.590   9.335
 1385SOL    HW1 9002   1.415   1.610   9.322
 1385SOL    HW2 9003   1.547   1.606   9.249
 1386SOL     OW 9004   0.551   1.516   9.754
 1386SOL    HW1 9005   0.532   1.483   9.666
 1386SOL    HW2 9006   0.482   1.580   9.771
 1387SOL     OW 9007   0.283   1.343   9.652
 1387SOL    HW1 9008   0.206   1.329   9.598
 1387SOL    HW2 9009   0.252   1.401   9.722
 1388SOL     OW 9010  10.001   0.343   9.195
 1388SOL    HW1 9011   0.018   0.292   9.275
 1388SOL    HW2 9012   0.065   0.415   9.199
 1389SOL     OW 9013   1.129   1.375   9.382
 1389SOL    HW1 9014   1.035   1.367   9.397
 1389SOL    HW2 9015   1.167   1.372   9.470
 1390SOL     OW 9016   0.485   0.737   0.006
 1390SOL    HW1 9017   0.522   0.806   9.950
 1390SOL    HW2 9018   0.413   0.701   9.954
 1391SOL     OW 9019   0.856   1.366   9.414
 1391SOL    HW1 9020   0.838   1.326   9.499
 1391SOL    HW2 9021   0.819   1.455   9.421
 1392SOL     OW 9022   1.238   1.051   9.411
 1392SOL    HW1 9023   1.174   1.115   9.379
 1392SOL    HW2 9024   1.222   0.973   9.357
 1393SOL     OW 9025   0.080   1.244   9.915
 1393SOL    HW1 9026   0.047   1.240   0.005
 1393SOL    HW2 9027   0.145   1.174   9.910
 1394SOL     OW 9028   0.793   1.256   9.650
 1394SOL    HW1 9029   0.784   1.161   9.645
 1394SOL    HW2 9030   0.761   1.279   9.737
 1395SOL     OW 9031   1.394   0.062   9.567
 1395SOL    HW1 9032   1.473   0.019   9.532
 1395SOL    HW2 9033   1.325   9.996   9.560
 1396SOL     OW 9034   0.086   1.025   9.575
 1396SOL    HW1 9035   0.171   0.984   9.594
 1396SOL    HW2 9036   0.028   0.993   9.644
 1397SOL     OW 9037   0.908   1.681   9.646
 1397SOL    HW1 9038   0.834   1.657   9.591
 1397SOL    HW2 9039   0.874   1.750   9.704
 1398SOL     OW 9040   0.250   2.514   0.103
 1398SOL    HW1 9041   0.188   2.495   0.172
 1398SOL    HW2 9042   0.326   2.458   0.122
 1399SOL     OW 9043   0.251   2.082   0.962
 1399SOL    HW1 9044   0.254   2.068   1.056
 1399SOL    HW2 9045   0.268   1.995   0.924
 1400SOL     OW 9046   0.590   3.128   1.163
 1400SOL    HW1 9047   0.554   3.050   1.122
 1400SOL    HW2 9048   0.519   3.192   1.162
 1401SOL     OW 9049   1.144   2.506   0.684
 1401SOL    HW1 9050   1.148   2.597   0.712
 1401SOL    HW2 9051   1.082   2.465   0.744
 1402SOL     OW 9052   1.773   2.455   0.218
 1402SOL    HW1 9053   1.700   2.495   0.171
 1402SOL    HW2 9054   1.734   2.381   0.265
 1403SOL     OW 9055   0.823   2.991   1.094
 1403SOL    HW1 9056   0.756   3.050   1.130
 1403SOL    HW2 9057   0.773   2.929   1.040
 1404SOL     OW 9058   0.863   2.575   1.812
 1404SOL    HW1 9059   0.886   2.631   1.886
 1404SOL    HW2 9060   0.873   2.632   1.735
 1405SOL     OW 9061   0.748   3.056   1.831
 1405SOL    HW1 9062   0.791   3.136   1.862
 1405SOL    HW2 9063   0.679   3.087   1.772
 1406SOL     OW 9064   0.347   3.270   1.104
 1406SOL    HW1 9065   0.277   3.223   1.058
 1406SOL    HW2 9066   0.389   3.322   1.036
 1407SOL     OW 9067   1.475   3.438   1.407
 1407SOL    HW1 9068   1.388   3.449   1.446
 1407SOL    HW2 9069   1.478   3.345   1.381
 1408SOL     OW 9070   0.435   2.243   1.503
 1408SOL    HW1 9071   0.515   2.190   1.501
 1408SOL    HW2 9072   0.364   2.180   1.491
 1409SOL     OW 9073   1.613   2.316   0.740
 1409SOL    HW1 9074   1.534   2.310   0.687
 1409SOL    HW2 9075   1.588   2.366   0.817
 1410SOL     OW 9076   0.294   3.479   0.464
 1410SOL    HW1 9077   0.228   3.548   0.465
 1410SOL    HW2 9078   0.374   3.522   0.434
 1411SOL     OW 9079   1.147   3.179   1.678
 1411SOL    HW1 9080   1.162   3.197   1.771
 1411SOL    HW2 9081   1.094   3.099   1.677
 1412SOL     OW 9082   0.268   3.205   0.462
 1412SOL    HW1 9083   0.278   3.298   0.479
 1412SOL    HW2 9084   0.215   3.173   0.536
 1413SOL     OW 9085   0.194   2.913   0.883
 1413SOL    HW1 9086   0.288   2.898   0.893
 1413SOL    HW2 9087   0.177   2.995   0.930
 1414SOL     OW 9088   0.579   3.742   1.377
 1414SOL    HW1 9089   0.509   3.704   1.429
 1414SOL    HW2 9090   0.620   3.806   1.436
 1415SOL     OW 9091   0.614   2.840   0.147
 1415SOL    HW1 9092   0.538   2.896   0.132
 1415SOL    HW2 9093   0.647   2.867   0.233
 1416SOL     OW 9094   1.528   2.004   1.422
 1416SOL    HW1 9095   1.482   2.051   1.353
 1416SOL    HW2 9096   1.522   2.062   1.498
 1417SOL     OW 9097   0.140   2.453   0.580
 1417SOL    HW1 9098   0.158   2.373   0.629
 1417SOL    HW2 9099   0.057   2.484   0.614
 1418SOL     OW 9100   0.005   3.450   0.199
 1418SOL    HW1 9101   9.991   3.356   0.198
 1418SOL    HW2 9102   0.100   3.461   0.195
 1419SOL     OW 9103   1.727   2.812   0.631
 1419SOL    HW1 9104   1.757   2.759   0.557
 1419SOL    HW2 9105   1.695   2.893   0.590
 1420SOL     OW 9106   1.654   3.043   0.484
 1420SOL    HW1 9107   1.647   3.058   0.390
 1420SOL    HW2 9108   1.686   3.126   0.519
 1421SOL     OW 9109   0.230   2.640   1.593
 1421SOL    HW1 9110   0.325   2.633   1.604
 1421SOL    HW2 9111   0.218   2.716   1.537
 1422SOL     OW 9112   0.606   3.292   0.730
 1422SOL    HW1 9113   0.562   3.208   0.737
 1422SOL    HW2 9114   0.615   3.306   0.635
 1423SOL     OW 9115   1.407   3.146   1.364
 1423SOL    HW1 9116   1.372   3.072   1.315
 1423SOL    HW2 9117   1.409   3.116   1.455
 1424SOL     OW 9118   0.777   1.926   0.459
 1424SOL    HW1 9119   0.764   2.005   0.407
 1424SOL    HW2 9120   0.692   1.910   0.500
 1425SOL     OW 9121   0.169   2.826   1.312
 1425SOL    HW1 9122   0.251   2.776   1.318
 1425SOL    HW2 9123   0.164   2.854   1.221
 1426SOL     OW 9124   1.611   2.743   0.188
 1426SOL    HW1 9125   1.533   2.755   0.135
 1426SOL    HW2 9126   1.579   2.736   0.278
 1427SOL     OW 9127   1.217   3.696   1.624
 1427SOL    HW1 9128   1.198   3.759   1.555
 1427SOL    HW2 9129   1.211   3.610   1.581
 1428SOL     OW 9130   0.393   2.108   1.771
 1428SOL    HW1 9131   0.428   2.197   1.760
 1428SOL    HW2 9132   0.298   2.120   1.775
 1429SOL     OW 9133   1.527   3.198   1.054
 1429SOL    HW1 9134   1.448   3.243   1.084
 1429SOL    HW2 9135   1.494   3.129   0.996
 1430SOL     OW 9136   0.643   2.579   0.256
 1430SOL    HW1 9137   0.635   2.662   0.211
 1430SOL    HW2 9138   0.603   2.594   0.342
 1431SOL     OW 9139   1.376   2.346   1.670
 1431SOL    HW1 9140   1.358   2.381   1.757
 1431SOL    HW2 9141   1.425   2.266   1.686
 1432SOL     OW 9142   0.905   2.741   1.591
 1432SOL    HW1 9143   0.914   2.658   1.543
 1432SOL    HW2 9144   0.877   2.804   1.524
 1433SOL     OW 9145   1.108   2.552   0.409
 1433SOL    HW1 9146   1.127   2.541   0.502
 1433SOL    HW2 9147   1.020   2.516   0.398
 1434SOL     OW 9148   0.119   2.655   0.823
 1434SOL    HW1 9149   0.114   2.605   0.905
 1434SOL    HW2 9150   0.138   2.745   0.851
 1435SOL     OW 9151   0.880   2.232   0.165
 1435SOL    HW1 9152   0.839   2.255   0.081
 1435SOL    HW2 9153   0.905   2.140   0.155
 1436SOL     OW 9154   1.731   2.458   1.821
 1436SOL    HW1 9155   1.695   2.522   1.759
 1436SOL    HW2 9156   1.740   2.377   1.769
 1437SOL     OW 9157   1.415   2.998   0.625
 1437SOL    HW1 9158   1.493   3.006   0.570
 1437SOL    HW2 9159   1.361   3.074   0.601
 1438SOL     OW 9160   0.566   2.009   0.918
 1438SOL    HW1 9161   0.568   2.036   1.009
 1438SOL    HW2 9162   0.536   2.087   0.871
 1439SOL     OW 9163   1.046   3.359   0.565
 1439SOL    HW1 9164   1.032   3.399   0.479
 1439SOL    HW2 9165   0.971   3.387   0.617
 1440SOL     OW 9166   0.383   3.672   0.853
 1440SOL    HW1 9167   0.400   3.578   0.866
 1440SOL    HW2 9168   0.461   3.715   0.888
 1441SOL     OW 9169   1.879   2.839   0.864
 1441SOL    HW1 9170   1.832   2.829   0.781
 1441SOL    HW2 9171   1.812   2.859   0.928
 1442SOL     OW 9172   1.222   3.423   1.513
 1442SOL    HW1 9173   1.207   3.368   1.590
 1442SOL    HW2 9174   1.162   3.389   1.447
 1443SOL     OW 9175   0.286   2.786   0.159
 1443SOL    HW1 9176   0.319   2.804   0.247
 1443SOL    HW2 9177   0.289   2.691   0.152
 1444SOL     OW 9178   1.510   2.620   0.683
 1444SOL    HW1 9179   1.502   2.578   0.768
 1444SOL    HW2 9180   1.579   2.685   0.695
 1445SOL     OW 9181   0.509   3.163   1.718
 1445SOL    HW1 9182   0.487   3.160   1.625
 1445SOL    HW2 9183   0.424   3.172   1.762
 1446SOL     OW 9184   1.101   3.647   0.187
 1446SOL    HW1 9185   1.056   3.598   0.256
 1446SOL    HW2 9186   1.128   3.581   0.124
 1447SOL     OW 9187   0.182   2.122   1.484
 1447SOL    HW1 9188   0.162   2.178   1.559
 1447SOL    HW2 9189   0.162   2.033   1.514
 1448SOL     OW 9190   0.526   3.602   0.356
 1448SOL    HW1 9191   0.557   3.673   0.412
 1448SOL    HW2 9192   0.603   3.577   0.305
 1449SOL     OW 9193   1.504   2.013   0.408
 1449SOL    HW1 9194   1.478   1.956   0.336
 1449SOL    HW2 9195   1.464   1.973   0.486
 1450SOL     OW 9196   0.222   3.674   1.233
 1450SOL    HW1 9197   0.257   3.588   1.255
 1450SOL    HW2 9198   0.182   3.663   1.147
 1451SOL     OW 9199   0.913   3.576   0.902
 1451SOL    HW1 9200   0.913   3.495   0.954
 1451SOL    HW2 9201   0.886   3.548   0.815
 1452SOL     OW 9202   1.504   2.102   1.731
 1452SOL    HW1 9203   1.497   2.126   1.823
 1452SOL    HW2 9204   1.480   2.009   1.729
 1453SOL     OW 9205   0.660   1.928   0.111
 1453SOL    HW1 9206   0.755   1.942   0.111
 1453SOL    HW2 9207   0.633   1.958   0.024
 1454SOL     OW 9208   0.739   2.138   1.746
 1454SOL    HW1 9209   0.828   2.103   1.746
 1454SOL    HW2 9210   0.703   2.113   1.831
 1455SOL     OW 9211   0.899   3.438   1.229
 1455SOL    HW1 9212   0.881   3.395   1.146
 1455SOL    HW2 9213   0.959   3.378   1.275
 1456SOL     OW 9214   1.496   2.489   1.455
 1456SOL    HW1 9215   1.444   2.438   1.517
 1456SOL    HW2 9216   1.439   2.562   1.431
 1457SOL     OW 9217   0.866   3.314   0.982
 1457SOL    HW1 9218   0.931   3.274   0.925
 1457SOL    HW2 9219   0.794   3.251   0.985
 1458SOL     OW 9220   0.976   2.340   0.837
 1458SOL    HW1 9221   1.021   2.272   0.888
 1458SOL    HW2 9222   0.925   2.389   0.903
 1459SOL     OW 9223   0.501   1.944   0.510
 1459SOL    HW1 9224   0.413   1.946   0.548
 1459SOL    HW2 9225   0.502   2.016   0.447
 1460SOL     OW 9226   1.360   3.542   0.778
 1460SOL    HW1 9227   1.391   3.508   0.694
 1460SOL    HW2 9228   1.296   3.477   0.807
 1461SOL     OW 9229   0.475   3.059   0.724
 1461SOL    HW1 9230   0.465   3.007   0.804
 1461SOL    HW2 9231   0.504   2.996   0.658
 1462SOL     OW 9232   1.333   3.743   0.548
 1462SOL    HW1 9233   1.270   3.808   0.516
 1462SOL    HW2 9234   1.296   3.715   0.632
 1463SOL     OW 9235   1.088   2.401   9.971
 1463SOL    HW1 9236   1.002   2.365   9.993
 1463SOL    HW2 9237   1.136   2.403   0.054
 1464SOL     OW 9238   0.107   2.476   1.404
 1464SOL    HW1 9239   0.180   2.435   1.356
 1464SOL    HW2 9240   0.149   2.523   1.476
 1465SOL     OW 9241   0.542   2.078   1.182
 1465SOL    HW1 9242   0.587   2.083   1.267
 1465SOL    HW2 9243   0.450   2.065   1.205
 1466SOL     OW 9244   0.917   2.237   0.588
 1466SOL    HW1 9245   0.932   2.289   0.667
 1466SOL    HW2 9246   0.899   2.302   0.520
 1467SOL     OW 9247   1.447   2.965   0.901
 1467SOL    HW1 9248   1.383   2.899   0.927
 1467SOL    HW2 9249   1.431   2.979   0.807
 1468SOL     OW 9250   1.469   2.482   0.929
 1468SOL    HW1 9251   1.407   2.409   0.935
 1468SOL    HW2 9252   1.508   2.488   1.017
 1469SOL     OW 9253   1.825   2.660   0.417
 1469SOL    HW1 9254   1.861   2.601   0.483
 1469SOL    HW2 9255   1.794   2.602   0.347
 1470SOL     OW 9256   0.476   3.359   0.135
 1470SOL    HW1 9257   0.398   3.309   0.158
 1470SOL    HW2 9258   0.527   3.301   0.079
 1471SOL     OW 9259   1.758   3.274   0.601
 1471SOL    HW1 9260   1.815   3.348   0.581
 1471SOL    HW2 9261   1.696   3.308   0.666
 1472SOL     OW 9262   1.453   2.424   0.061
 1472SOL    HW1 9263   1.376   2.435   0.116
 1472SOL    HW2 9264   1.476   2.332   0.070
 1473SOL     OW 9265   0.582   2.114   0.302
 1473SOL    HW1 9266   0.598   2.040   0.244
 1473SOL    HW2 9267   0.535   2.177   0.247
 1474SOL     OW 9268   1.720   3.234   1.617
 1474SOL    HW1 9269   1.789   3.179   1.655
 1474SOL    HW2 9270   1.742   3.323   1.646
 1475SOL     OW 9271   1.051   3.251   1.376
 1475SOL    HW1 9272   0.960   3.222   1.373
 1475SOL    HW2 9273   1.098   3.181   1.421
 1476SOL     OW 9274   1.091   3.095   1.078
 1476SOL    HW1 9275   1.004   3.057   1.094
 1476SOL    HW2 9276   1.090   3.116   0.984
 1477SOL     OW 9277   1.682   2.943   1.041
 1477SOL    HW1 9278   1.677   3.029   1.083
 1477SOL    HW2 9279   1.604   2.938   0.987
 1478SOL     OW 9280   0.911   1.949   1.440
 1478SOL    HW1 9281   0.937   1.927   1.350
 1478SOL    HW2 9282   0.960   1.887   1.494
 1479SOL     OW 9283   0.993   2.952   1.743
 1479SOL    HW1 9284   0.906   2.980   1.772
 1479SOL    HW2 9285   0.977   2.873   1.691
 1480SOL     OW 9286   0.721   2.899   0.393
 1480SOL    HW1 9287   0.650   2.879   0.454
 1480SOL    HW2 9288   0.799   2.861   0.434
 1481SOL     OW 9289   0.389   2.670   1.335
 1481SOL    HW1 9290   0.483   2.677   1.353
 1481SOL    HW2 9291   0.376   2.578   1.311
 1482SOL     OW 9292   9.970   3.474   1.277
 1482SOL    HW1 9293   9.898   3.466   1.340
 1482SOL    HW2 9294   9.977   3.568   1.260
 1483SOL     OW 9295   0.340   2.938   0.402
 1483SOL    HW1 9296   0.344   3.032   0.423
 1483SOL    HW2 9297   0.411   2.899   0.453
 1484SOL     OW 9298   0.562   2.349   0.846
 1484SOL    HW1 9299   0.634   2.308   0.799
 1484SOL    HW2 9300   0.603   2.394   0.919
 1485SOL     OW 9301   1.292   3.232   0.554
 1485SOL    HW1 9302   1.341   3.312   0.534
 1485SOL    HW2 9303   1.200   3.257   0.547
 1486SOL     OW 9304   1.281   3.301   1.157
 1486SOL    HW1 9305   1.308   3.262   1.241
 1486SOL    HW2 9306   1.205   3.249   1.130
 1487SOL     OW 9307   1.508   2.514   0.420
 1487SOL    HW1 9308   1.503   2.541   0.512
 1487SOL    HW2 9309   1.438   2.562   0.377
 1488SOL     OW 9310   0.360   3.438   1.317
 1488SOL    HW1 9311   0.336   3.378   1.247
 1488SOL    HW2 9312   0.453   3.455   1.305
 1489SOL     OW 9313   0.498   2.607   1.634
 1489SOL    HW1 9314   0.554   2.625   1.559
 1489SOL    HW2 9315   0.543   2.536   1.680
 1490SOL     OW 9316   1.621   2.647   1.649
 1490SOL    HW1 9317   1.543   2.699   1.665
 1490SOL    HW2 9318   1.596   2.587   1.579
 1491SOL     OW 9319   0.996   2.018   1.745
 1491SOL    HW1 9320   1.047   2.087   1.703
 1491SOL    HW2 9321   1.029   1.937   1.707
 1492SOL     OW 9322   0.516   1.868   1.771
 1492SOL    HW1 9323   0.458   1.822   1.710
 1492SOL    HW2 9324   0.490   1.960   1.764
 1493SOL     OW 9325   1.304   2.740   1.012
 1493SOL    HW1 9326   1.213   2.712   1.018
 1493SOL    HW2 9327   1.351   2.663   0.980
 1494SOL     OW 9328   1.223   2.398   0.212
 1494SOL    HW1 9329   1.249   2.324   0.267
 1494SOL    HW2 9330   1.185   2.461   0.273
 1495SOL     OW 9331   0.272   2.042   1.237
 1495SOL    HW1 9332   0.238   2.085   1.316
 1495SOL    HW2 9333   0.219   1.963   1.227
 1496SOL     OW 9334   0.028   3.201   1.263
 1496SOL    HW1 9335   0.068   3.170   1.345
 1496SOL    HW2 9336   0.016   3.295   1.276
 1497SOL     OW 9337   0.675   2.483   1.052
 1497SOL    HW1 9338   0.760   2.449   1.080
 1497SOL    HW2 9339   0.677   2.575   1.077
 1498SOL     OW 9340   1.756   2.807   1.852
 1498SOL    HW1 9341   1.711   2.744   1.796
 1498SOL    HW2 9342   1.697   2.819   1.927
 1499SOL     OW 9343   1.614   2.266   0.341
 1499SOL    HW1 9344   1.577   2.191   0.388
 1499SOL    HW2 9345   1.569   2.342   0.377
 1500SOL     OW 9346   1.051   2.627   1.052
 1500SOL    HW1 9347   1.047   2.656   1.143
 1500SOL    HW2 9348   1.010   2.540   1.053
 1501SOL     OW 9349   1.008   3.452   1.717
 1501SOL    HW1 9350   0.974   3.502   1.643
 1501SOL    HW2 9351   0.964   3.367   1.712
 1502SOL     OW 9352   0.410   2.829   1.780
 1502SOL    HW1 9353   0.475   2.855   1.844
 1502SOL    HW2 9354   0.449   2.754   1.734
 1503SOL     OW 9355   1.509   2.155   0.101
 1503SOL    HW1 9356   1.461   2.076   0.123
 1503SOL    HW2 9357   1.553   2.181   0.182
 1504SOL     OW 9358   1.414   2.760   9.987
 1504SOL    HW1 9359   1.384   2.669   9.999
 1504SOL    HW2 9360   1.340   2.813   0.016
 1505SOL     OW 9361   1.053   3.205   0.809
 1505SOL    HW1 9362   1.060   3.112   0.789
 1505SOL    HW2 9363   1.066   3.249   0.726
 1506SOL     OW 9364   0.342   2.335   1.021
 1506SOL    HW1 9365   0.306   2.250   0.995
 1506SOL    HW2 9366   0.420   2.346   0.967
 1507SOL     OW 9367   1.118   2.243   1.634
 1507SOL    HW1 9368   1.067   2.285   1.703
 1507SOL    HW2 9369   1.206   2.281   1.641
 1508SOL     OW 9370   9.965   3.174   0.222
 1508SOL    HW1 9371   9.896   3.140   0.166
 1508SOL    HW2 9372   9.996   3.099   0.272
 1509SOL     OW 9373   0.135   3.673   0.966
 1509SOL    HW1 9374   0.097   3.592   0.932
 1509SOL    HW2 9375   0.222   3.678   0.925
 1510SOL     OW 9376   0.487   3.431   0.931
 1510SOL    HW1 9377   0.553   3.493   0.960
 1510SOL    HW2 9378   0.529   3.380   0.862
 1511SOL     OW 9379   0.102   2.473   1.036
 1511SOL    HW1 9380   0.185   2.427   1.024
 1511SOL    HW2 9381   0.093   2.483   1.131
 1512SOL     OW 9382   0.260   2.382   1.699
 1512SOL    HW1 9383   0.332   2.353   1.643
 1512SOL    HW2 9384   0.243   2.472   1.672
 1513SOL     OW 9385   1.396   2.800   1.666
 1513SOL    HW1 9386   1.414   2.894   1.660
 1513SOL    HW2 9387   1.369   2.775   1.577
 1514SOL     OW 9388   0.864   2.419   0.368
 1514SOL    HW1 9389   0.871   2.350   0.302
 1514SOL    HW2 9390   0.789   2.471   0.340
 1515SOL     OW 9391   1.594   2.500   1.178
 1515SOL    HW1 9392   1.572   2.471   1.266
 1515SOL    HW2 9393   1.674   2.453   1.156
 1516SOL     OW 9394   0.191   3.460   1.746
 1516SOL    HW1 9395   0.241   3.390   1.787
 1516SOL    HW2 9396   0.117   3.416   1.704
 1517SOL     OW 9397   0.888   3.573   1.489
 1517SOL    HW1 9398   0.885   3.518   1.411
 1517SOL    HW2 9399   0.895   3.663   1.455
 1518SOL     OW 9400   0.474   2.370   0.185
 1518SOL    HW1 9401   0.543   2.435   0.195
 1518SOL    HW2 9402   0.442   2.354   0.273
 1519SOL     OW 9403   0.158   3.058   1.467
 1519SOL    HW1 9404   0.151   3.029   1.558
 1519SOL    HW2 9405   0.160   2.977   1.416
 1520SOL     OW 9406   1.291   2.945   1.205
 1520SOL    HW1 9407   1.303   2.874   1.142
 1520SOL    HW2 9408   1.216   2.995   1.171
 1521SOL     OW 9409   1.309   2.709   0.277
 1521SOL    HW1 9410   1.235   2.673   0.326
 1521SOL    HW2 9411   1.270   2.776   0.220
 1522SOL     OW 9412   1.256   3.589   1.140
 1522SOL    HW1 9413   1.338   3.612   1.096
 1522SOL    HW2 9414   1.260   3.493   1.150
 1523SOL     OW 9415   0.110   3.150   1.006
 1523SOL    HW1 9416   0.085   3.165   1.097
 1523SOL    HW2 9417   0.027   3.134   0.961
 1524SOL     OW 9418   0.704   3.561   1.698
 1524SOL    HW1 9419   0.641   3.633   1.687
 1524SOL    HW2 9420   0.770   3.576   1.631
 1525SOL     OW 9421   0.933   1.964   0.087
 1525SOL    HW1 9422   0.931   1.918   0.003
 1525SOL    HW2 9423   1.003   1.921   0.136
 1526SOL     OW 9424   1.764   1.997   0.501
 1526SOL    HW1 9425   1.673   2.008   0.474
 1526SOL    HW2 9426   1.765   1.913   0.547
 1527SOL     OW 9427   1.421   3.476   0.506
 1527SOL    HW1 9428   1.462   3.453   0.423
 1527SOL    HW2 9429   1.388   3.564   0.494
 1528SOL     OW 9430   1.273   2.767   0.676
 1528SOL    HW1 9431   1.343   2.701   0.670
 1528SOL    HW2 9432   1.314   2.848   0.645
 1529SOL     OW 9433   0.788   3.192   1.375
 1529SOL    HW1 9434   0.755   3.221   1.460
 1529SOL    HW2 9435   0.708   3.169   1.326
 1530SOL     OW 9436   0.723   3.480   0.191
 1530SOL    HW1 9437   0.787   3.437   0.135
 1530SOL    HW2 9438   0.640   3.440   0.167
 1531SOL     OW 9439   1.877   2.033   0.970
 1531SOL    HW1 9440   1.895   1.940   0.955
 1531SOL    HW2 9441   1.787   2.044   0.940
 1532SOL     OW 9442   0.229   2.256   0.745
 1532SOL    HW1 9443   0.246   2.207   0.665
 1532SOL    HW2 9444   0.223   2.190   0.814
 1533SOL     OW 9445   1.176   3.469   9.990
 1533SOL    HW1 9446   1.198   3.390   0.039
 1533SOL    HW2 9447   1.129   3.437   9.913
 1534SOL     OW 9448   0.846   2.848   1.340
 1534SOL    HW1 9449   0.914   2.782   1.326
 1534SOL    HW2 9450   0.847   2.900   1.260
 1535SOL     OW 9451   1.530   3.554   0.014
 1535SOL    HW1 9452   1.518   3.476   0.069
 1535SOL    HW2 9453   1.570   3.520   9.934
 1536SOL     OW 9454   0.395   3.203   1.475
 1536SOL    HW1 9455   0.382   3.281   1.421
 1536SOL    HW2 9456   0.313   3.153   1.466
 1537SOL     OW 9457   1.692   3.150   1.347
 1537SOL    HW1 9458   1.692   3.171   1.440
 1537SOL    HW2 9459   1.600   3.138   1.324
 1538SOL     OW 9460   1.076   2.939   0.769
 1538SOL    HW1 9461   1.003   2.884   0.797
 1538SOL    HW2 9462   1.141   2.878   0.735
 1539SOL     OW 9463   0.663   3.349   0.465
 1539SOL    HW1 9464   0.712   3.285   0.413
 1539SOL    HW2 9465   0.593   3.379   0.407
 1540SOL     OW 9466   1.830   2.233   1.433
 1540SOL    HW1 9467   1.852   2.312   1.382
 1540SOL    HW2 9468   1.817   2.165   1.367
 1541SOL     OW 9469   0.251   3.199   0.191
 1541SOL    HW1 9470   0.157   3.186   0.178
 1541SOL    HW2 9471   0.262   3.199   0.286
 1542SOL     OW 9472   0.171   2.950   1.727
 1542SOL    HW1 9473   0.112   2.887   1.767
 1542SOL    HW2 9474   0.258   2.913   1.740
 1543SOL     OW 9475   0.661   2.056   1.492
 1543SOL    HW1 9476   0.747   2.026   1.462
 1543SOL    HW2 9477   0.676   2.088   1.581
 1544SOL     OW 9478   0.011   2.233   9.920
 1544SOL    HW1 9479   0.018   2.166   9.987
 1544SOL    HW2 9480   0.083   2.214   9.859
 1545SOL     OW 9481   1.394   2.743   1.395
 1545SOL    HW1 9482   1.324   2.784   1.345
 1545SOL    HW2 9483   1.474   2.764   1.346
 1546SOL     OW 9484   1.207   3.223   0.097
 1546SOL    HW1 9485   1.151   3.145   0.088
 1546SOL    HW2 9486   1.287   3.190   0.139
 1547SOL     OW 9487   0.659   2.654   1.410
 1547SOL    HW1 9488   0.701   2.736   1.384
 1547SOL    HW2 9489   0.730   2.591   1.415
 1548SOL     OW 9490   1.487   3.680   0.990
 1548SOL    HW1 9491   1.442   3.640   0.916
 1548SOL    HW2 9492   1.578   3.650   0.983
 1549SOL     OW 9493   0.645   2.407   1.753
 1549SOL    HW1 9494   0.718   2.463   1.781
 1549SOL    HW2 9495   0.685   2.321   1.743
 1550SOL     OW 9496   1.484   3.075   1.630
 1550SOL    HW1 9497   1.463   3.077   1.724
 1550SOL    HW2 9498   1.563   3.129   1.623
 1551SOL     OW 9499   0.316   3.597   1.544
 1551SOL    HW1 9500   0.325   3.546   1.463
 1551SOL    HW2 9501   0.291   3.533   1.610
 1552SOL     OW 9502   1.640   2.766   1.257
 1552SOL    HW1 9503   1.627   2.679   1.217
 1552SOL    HW2 9504   1.657   2.824   1.182
 1553SOL     OW 9505   1.309   2.217   0.398
 1553SOL    HW1 9506   1.360   2.136   0.404
 1553SOL    HW2 9507   1.320   2.259   0.483
 1554SOL     OW 9508   1.759   2.213   1.697
 1554SOL    HW1 9509   1.780   2.215   1.604
 1554SOL    HW2 9510   1.676   2.164   1.702
 1555SOL     OW 9511   1.804   2.785   1.485
 1555SOL    HW1 9512   1.739   2.756   1.549
 1555SOL    HW2 9513   1.754   2.795   1.404
 1556SOL     OW 9514   0.883   3.285   0.006
 1556SOL    HW1 9515   0.796   3.244   0.005
 1556SOL    HW2 9516   0.942   3.214   0.032
 1557SOL     OW 9517   0.652   3.664   0.946
 1557SOL    HW1 9518   0.647   3.759   0.932
 1557SOL    HW2 9519   0.745   3.643   0.936
 1558SOL     OW 9520   0.896   2.757   0.858
 1558SOL    HW1 9521   0.938   2.715   0.933
 1558SOL    HW2 9522   0.808   2.779   0.889
 1559SOL     OW 9523   0.259   3.197   1.818
 1559SOL    HW1 9524   0.214   3.119   1.786
 1559SOL    HW2 9525   0.244   3.196   1.913
 1560SOL     OW 9526   0.141   2.992   0.618
 1560SOL    HW1 9527   0.139   2.967   0.710
 1560SOL    HW2 9528   0.222   2.954   0.584
 1561SOL     OW 9529   0.730   3.296   1.629
 1561SOL    HW1 9530   0.649   3.256   1.660
 1561SOL    HW2 9531   0.721   3.389   1.652
 1562SOL     OW 9532   1.837   2.036   1.245
 1562SOL    HW1 9533   1.805   1.948   1.262
 1562SOL    HW2 9534   1.844   2.041   1.150
 1563SOL     OW 9535   0.451   2.322   0.460
 1563SOL    HW1 9536   0.522   2.259   0.447
 1563SOL    HW2 9537   0.374   2.267   0.477
 1564SOL     OW 9538   1.762   3.431   1.157
 1564SOL    HW1 9539   1.761   3.485   1.078
 1564SOL    HW2 9540   1.706   3.356   1.136
 1565SOL     OW 9541   0.342   2.402   1.288
 1565SOL    HW1 9542   0.398   2.349   1.344
 1565SOL    HW2 9543   0.360   2.372   1.199
 1566SOL     OW 9544   0.816   3.459   0.677
 1566SOL    HW1 9545   0.781   3.459   0.588
 1566SOL    HW2 9546   0.758   3.400   0.725
 1567SOL     OW 9547   1.317   2.112   1.204
 1567SOL    HW1 9548   1.323   2.019   1.181
 1567SOL    HW2 9549   1.318   2.158   1.120
 1568SOL     OW 9550   1.023   1.955   1.193
 1568SOL    HW1 9551   1.019   2.026   1.128
 1568SOL    HW2 9552   1.090   1.896   1.159
 1569SOL     OW 9553   0.791   3.157   0.312
 1569SOL    HW1 9554   0.762   3.071   0.341
 1569SOL    HW2 9555   0.873   3.141   0.265
 1570SOL     OW 9556   0.622   3.487   1.274
 1570SOL    HW1 9557   0.629   3.580   1.294
 1570SOL    HW2 9558   0.713   3.459   1.260
 1571SOL     OW 9559   1.378   1.909   0.158
 1571SOL    HW1 9560   1.418   1.822   0.152
 1571SOL    HW2 9561   1.290   1.893   0.192
 1572SOL     OW 9562   1.348   2.318   0.650
 1572SOL    HW1 9563   1.281   2.385   0.663
 1572SOL    HW2 9564   1.337   2.259   0.725
 1573SOL     OW 9565   1.616   2.067   0.902
 1573SOL    HW1 9566   1.532   2.030   0.929
 1573SOL    HW2 9567   1.594   2.135   0.839
 1574SOL     OW 9568   0.065   2.955   0.348
 1574SOL    HW1 9569   0.159   2.937   0.344
 1574SOL    HW2 9570   0.046   2.960   0.442
 1575SOL     OW 9571   0.931   3.536   0.377
 1575SOL    HW1 9572   0.855   3.515   0.322
 1575SOL    HW2 9573   0.903   3.613   0.428
 1576SOL     OW 9574   0.239   2.517   1.963
 1576SOL    HW1 9575   0.174   2.484   2.025
 1576SOL    HW2 9576   0.238   2.454   1.891
 1577SOL     OW 9577   0.249   2.135   2.884
 1577SOL    HW1 9578   0.243   2.135   2.979
 1577SOL    HW2 9579   0.200   2.058   2.856
 1578SOL     OW 9580   0.067   2.278   2.550
 1578SOL    HW1 9581   0.009   2.303   2.621
 1578SOL    HW2 9582   0.025   2.202   2.510
 1579SOL     OW 9583   0.592   3.177   3.068
 1579SOL    HW1 9584   0.508   3.163   3.024
 1579SOL    HW2 9585   0.594   3.271   3.087
 1580SOL     OW 9586   1.569   3.388   2.568
 1580SOL    HW1 9587   1.528   3.353   2.647
 1580SOL    HW2 9588   1.497   3.403   2.507
 1581SOL     OW 9589   1.168   2.524   2.598
 1581SOL    HW1 9590   1.083   2.502   2.562
 1581SOL    HW2 9591   1.150   2.552   2.688
 1582SOL     OW 9592   1.818   2.406   2.069
 1582SOL    HW1 9593   1.775   2.434   1.988
 1582SOL    HW2 9594   1.747   2.372   2.123
 1583SOL     OW 9595   0.838   3.082   2.967
 1583SOL    HW1 9596   0.755   3.085   3.015
 1583SOL    HW2 9597   0.819   3.124   2.883
 1584SOL     OW 9598   0.888   2.631   3.663
 1584SOL    HW1 9599   0.807   2.621   3.714
 1584SOL    HW2 9600   0.864   2.607   3.574
 1585SOL     OW 9601   0.724   2.957   2.495
 1585SOL    HW1 9602   0.768   2.895   2.553
 1585SOL    HW2 9603   0.641   2.976   2.539
 1586SOL     OW 9604   0.750   3.032   3.683
 1586SOL    HW1 9605   0.789   3.109   3.723
 1586SOL    HW2 9606   0.672   3.064   3.638
 1587SOL     OW 9607   0.342   3.252   2.933
 1587SOL    HW1 9608   0.263   3.198   2.922
 1587SOL    HW2 9609   0.351   3.299   2.850
 1588SOL     OW 9610   1.614   2.324   2.594
 1588SOL    HW1 9611   1.523   2.313   2.567
 1588SOL    HW2 9612   1.623   2.419   2.607
 1589SOL     OW 9613   0.266   3.484   2.320
 1589SOL    HW1 9614   0.202   3.552   2.341
 1589SOL    HW2 9615   0.337   3.530   2.276
 1590SOL     OW 9616   1.157   3.200   3.484
 1590SOL    HW1 9617   1.192   3.219   3.571
 1590SOL    HW2 9618   1.101   3.124   3.496
 1591SOL     OW 9619   0.270   3.217   2.352
 1591SOL    HW1 9620   0.273   3.313   2.356
 1591SOL    HW2 9621   0.220   3.191   2.429
 1592SOL     OW 9622   0.271   2.953   2.773
 1592SOL    HW1 9623   0.288   2.861   2.795
 1592SOL    HW2 9624   0.228   2.989   2.851
 1593SOL     OW 9625   0.613   3.633   3.331
 1593SOL    HW1 9626   0.525   3.623   3.367
 1593SOL    HW2 9627   0.629   3.727   3.331
 1594SOL     OW 9628   0.587   2.901   1.990
 1594SOL    HW1 9629   0.647   2.948   1.933
 1594SOL    HW2 9630   0.628   2.903   2.076
 1595SOL     OW 9631   1.567   2.007   3.324
 1595SOL    HW1 9632   1.603   2.092   3.298
 1595SOL    HW2 9633   1.509   2.026   3.397
 1596SOL     OW 9634   0.159   2.506   2.414
 1596SOL    HW1 9635   0.132   2.428   2.462
 1596SOL    HW2 9636   0.147   2.578   2.476
 1597SOL     OW 9637   1.851   3.724   2.192
 1597SOL    HW1 9638   1.784   3.664   2.159
 1597SOL    HW2 9639   1.809   3.767   2.266
 1598SOL     OW 9640   9.985   3.498   2.057
 1598SOL    HW1 9641   9.973   3.406   2.032
 1598SOL    HW2 9642   0.074   3.503   2.091
 1599SOL     OW 9643   1.774   2.868   2.478
 1599SOL    HW1 9644   1.717   2.795   2.505
 1599SOL    HW2 9645   1.732   2.903   2.399
 1600SOL     OW 9646   1.687   3.023   2.264
 1600SOL    HW1 9647   1.773   2.994   2.233
 1600SOL    HW2 9648   1.705   3.104   2.312
 1601SOL     OW 9649   0.600   3.272   2.581
 1601SOL    HW1 9650   0.555   3.187   2.584
 1601SOL    HW2 9651   0.597   3.297   2.489
 1602SOL     OW 9652   1.380   3.130   3.230
 1602SOL    HW1 9653   1.347   3.052   3.184
 1602SOL    HW2 9654   1.375   3.107   3.323
 1603SOL     OW 9655   0.838   1.875   2.373
 1603SOL    HW1 9656   0.883   1.954   2.342
 1603SOL    HW2 9657   0.746   1.900   2.378
 1604SOL     OW 9658   0.148   2.732   3.231
 1604SOL    HW1 9659   0.241   2.708   3.226
 1604SOL    HW2 9660   0.117   2.726   3.141
 1605SOL     OW 9661   1.577   2.860   2.064
 1605SOL    HW1 9662   1.514   2.799   2.103
 1605SOL    HW2 9663   1.607   2.913   2.138
 1606SOL     OW 9664   0.378   2.238   3.596
 1606SOL    HW1 9665   0.397   2.321   3.640
 1606SOL    HW2 9666   0.301   2.257   3.542
 1607SOL     OW 9667   1.473   3.273   2.806
 1607SOL    HW1 9668   1.402   3.277   2.870
 1607SOL    HW2 9669   1.470   3.184   2.772
 1608SOL     OW 9670   1.690   3.591   2.412
 1608SOL    HW1 9671   1.645   3.576   2.329
 1608SOL    HW2 9672   1.650   3.528   2.472
 1609SOL     OW 9673   0.607   2.622   2.039
 1609SOL    HW1 9674   0.608   2.710   2.001
 1609SOL    HW2 9675   0.678   2.622   2.102
 1610SOL     OW 9676   1.288   2.178   2.756
 1610SOL    HW1 9677   1.194   2.159   2.757
 1610SOL    HW2 9678   1.322   2.138   2.836
 1611SOL     OW 9679   1.581   3.591   2.146
 1611SOL    HW1 9680   1.522   3.663   2.125
 1611SOL    HW2 9681   1.572   3.531   2.072
 1612SOL     OW 9682   1.394   2.355   3.513
 1612SOL    HW1 9683   1.388   2.387   3.603
 1612SOL    HW2 9684   1.419   2.263   3.522
 1613SOL     OW 9685   1.101   2.772   3.413
 1613SOL    HW1 9686   1.080   2.680   3.392
 1613SOL    HW2 9687   1.057   2.822   3.344
 1614SOL     OW 9688   0.982   2.340   3.107
 1614SOL    HW1 9689   0.905   2.334   3.165
 1614SOL    HW2 9690   0.946   2.337   3.019
 1615SOL     OW 9691   0.104   2.703   2.613
 1615SOL    HW1 9692   0.182   2.688   2.667
 1615SOL    HW2 9693   0.053   2.767   2.662
 1616SOL     OW 9694   0.141   3.762   3.474
 1616SOL    HW1 9695   0.137   3.749   3.569
 1616SOL    HW2 9696   0.067   3.711   3.440
 1617SOL     OW 9697   0.933   2.100   2.003
 1617SOL    HW1 9698   0.945   2.192   1.978
 1617SOL    HW2 9699   0.971   2.050   1.930
 1618SOL     OW 9700   1.729   2.446   3.689
 1618SOL    HW1 9701   1.674   2.512   3.648
 1618SOL    HW2 9702   1.711   2.365   3.640
 1619SOL     OW 9703   1.441   3.039   2.416
 1619SOL    HW1 9704   1.508   3.023   2.349
 1619SOL    HW2 9705   1.379   3.097   2.373
 1620SOL     OW 9706   0.587   1.988   2.839
 1620SOL    HW1 9707   0.554   1.995   2.928
 1620SOL    HW2 9708   0.616   2.076   2.817
 1621SOL     OW 9709   0.359   3.678   2.733
 1621SOL    HW1 9710   0.411   3.598   2.742
 1621SOL    HW2 9711   0.413   3.747   2.770
 1622SOL     OW 9712   1.759   3.055   2.676
 1622SOL    HW1 9713   1.760   2.982   2.614
 1622SOL    HW2 9714   1.669   3.059   2.707
 1623SOL     OW 9715   1.269   3.445   3.378
 1623SOL    HW1 9716   1.253   3.355   3.406
 1623SOL    HW2 9717   1.182   3.478   3.355
 1624SOL     OW 9718   0.332   2.835   2.102
 1624SOL    HW1 9719   0.411   2.868   2.058
 1624SOL    HW2 9720   0.331   2.741   2.084
 1625SOL     OW 9721   0.520   3.147   3.568
 1625SOL    HW1 9722   0.475   3.155   3.484
 1625SOL    HW2 9723   0.450   3.131   3.632
 1626SOL     OW 9724   1.239   3.579   2.104
 1626SOL    HW1 9725   1.150   3.613   2.115
 1626SOL    HW2 9726   1.236   3.530   2.022
 1627SOL     OW 9727   1.650   3.233   1.970
 1627SOL    HW1 9728   1.598   3.311   1.952
 1627SOL    HW2 9729   1.591   3.160   1.953
 1628SOL     OW 9730   0.483   3.593   2.190
 1628SOL    HW1 9731   0.517   3.661   2.249
 1628SOL    HW2 9732   0.551   3.584   2.123
 1629SOL     OW 9733   1.414   1.978   2.318
 1629SOL    HW1 9734   1.409   1.947   2.227
 1629SOL    HW2 9735   1.493   1.935   2.353
 1630SOL     OW 9736   0.217   3.646   3.069
 1630SOL    HW1 9737   0.274   3.574   3.097
 1630SOL    HW2 9738   0.181   3.616   2.985
 1631SOL     OW 9739   1.047   3.581   2.893
 1631SOL    HW1 9740   0.986   3.519   2.932
 1631SOL    HW2 9741   0.997   3.624   2.823
 1632SOL     OW 9742   1.443   2.080   3.566
 1632SOL    HW1 9743   1.446   2.087   3.661
 1632SOL    HW2 9744   1.380   2.009   3.549
 1633SOL     OW 9745   0.660   2.000   1.982
 1633SOL    HW1 9746   0.753   1.987   2.003
 1633SOL    HW2 9747   0.637   1.925   1.928
 1634SOL     OW 9748   0.811   2.070   3.627
 1634SOL    HW1 9749   0.898   2.031   3.632
 1634SOL    HW2 9750   0.758   2.017   3.686
 1635SOL     OW 9751   0.880   3.392   3.009
 1635SOL    HW1 9752   0.855   3.334   2.937
 1635SOL    HW2 9753   0.926   3.334   3.071
 1636SOL     OW 9754   1.323   2.515   3.301
 1636SOL    HW1 9755   1.344   2.456   3.374
 1636SOL    HW2 9756   1.228   2.525   3.306
 1637SOL     OW 9757   0.812   3.267   2.761
 1637SOL    HW1 9758   0.888   3.259   2.703
 1637SOL    HW2 9759   0.736   3.264   2.702
 1638SOL     OW 9760   0.941   2.349   2.820
 1638SOL    HW1 9761   0.890   2.383   2.746
 1638SOL    HW2 9762   0.968   2.261   2.792
 1639SOL     OW 9763   0.573   1.950   2.360
 1639SOL    HW1 9764   0.496   1.956   2.417
 1639SOL    HW2 9765   0.569   2.030   2.308
 1640SOL     OW 9766   1.450   3.044   1.905
 1640SOL    HW1 9767   1.494   2.973   1.950
 1640SOL    HW2 9768   1.356   3.026   1.915
 1641SOL     OW 9769   0.336   1.907   1.999
 1641SOL    HW1 9770   0.400   1.903   1.929
 1641SOL    HW2 9771   0.375   1.857   2.071
 1642SOL     OW 9772   0.976   2.094   2.281
 1642SOL    HW1 9773   0.956   2.101   2.187
 1642SOL    HW2 9774   1.066   2.125   2.289
 1643SOL     OW 9775   1.041   2.518   3.313
 1643SOL    HW1 9776   0.958   2.514   3.360
 1643SOL    HW2 9777   1.034   2.454   3.244
 1644SOL     OW 9778   0.473   3.025   2.591
 1644SOL    HW1 9779   0.418   3.000   2.665
 1644SOL    HW2 9780   0.428   2.990   2.514
 1645SOL     OW 9781   1.003   2.350   1.884
 1645SOL    HW1 9782   0.953   2.425   1.854
 1645SOL    HW2 9783   1.030   2.373   1.973
 1646SOL     OW 9784   0.478   2.011   3.089
 1646SOL    HW1 9785   0.431   1.928   3.095
 1646SOL    HW2 9786   0.414   2.077   3.115
 1647SOL     OW 9787   0.958   2.283   2.499
 1647SOL    HW1 9788   0.927   2.356   2.445
 1647SOL    HW2 9789   0.958   2.208   2.439
 1648SOL     OW 9790   1.023   1.888   2.583
 1648SOL    HW1 9791   0.957   1.882   2.514
 1648SOL    HW2 9792   1.001   1.816   2.642
 1649SOL     OW 9793   1.484   3.027   2.690
 1649SOL    HW1 9794   1.471   2.936   2.716
 1649SOL    HW2 9795   1.458   3.030   2.598
 1650SOL     OW 9796   1.917   2.635   2.205
 1650SOL    HW1 9797   1.945   2.589   2.284
 1650SOL    HW2 9798   1.867   2.569   2.156
 1651SOL     OW 9799   0.511   3.292   2.008
 1651SOL    HW1 9800   0.419   3.282   2.033
 1651SOL    HW2 9801   0.524   3.227   1.939
 1652SOL     OW 9802   1.757   3.220   2.449
 1652SOL    HW1 9803   1.765   3.168   2.529
 1652SOL    HW2 9804   1.689   3.285   2.469
 1653SOL     OW 9805   1.316   2.408   1.940
 1653SOL    HW1 9806   1.241   2.405   1.999
 1653SOL    HW2 9807   1.371   2.335   1.967
 1654SOL     OW 9808   0.569   2.164   2.186
 1654SOL    HW1 9809   0.605   2.108   2.117
 1654SOL    HW2 9810   0.546   2.245   2.141
 1655SOL     OW 9811   1.727   3.069   3.451
 1655SOL    HW1 9812   1.744   3.015   3.528
 1655SOL    HW2 9813   1.786   3.144   3.461
 1656SOL     OW 9814   1.006   3.263   3.228
 1656SOL    HW1 9815   0.931   3.205   3.238
 1656SOL    HW2 9816   1.068   3.234   3.294
 1657SOL     OW 9817   1.110   3.065   2.916
 1657SOL    HW1 9818   1.023   3.062   2.954
 1657SOL    HW2 9819   1.100   3.025   2.829
 1658SOL     OW 9820   1.594   2.983   3.002
 1658SOL    HW1 9821   1.617   3.048   3.069
 1658SOL    HW2 9822   1.498   2.981   3.004
 1659SOL     OW 9823   0.923   1.907   3.226
 1659SOL    HW1 9824   0.946   1.899   3.133
 1659SOL    HW2 9825   0.989   1.966   3.262
 1660SOL     OW 9826   1.007   2.985   3.575
 1660SOL    HW1 9827   0.915   2.986   3.600
 1660SOL    HW2 9828   1.016   2.908   3.518
 1661SOL     OW 9829   0.723   2.892   2.230
 1661SOL    HW1 9830   0.718   2.913   2.324
 1661SOL    HW2 9831   0.753   2.801   2.228
 1662SOL     OW 9832   0.410   2.655   3.178
 1662SOL    HW1 9833   0.493   2.674   3.221
 1662SOL    HW2 9834   0.401   2.560   3.184
 1663SOL     OW 9835   1.236   2.240   3.142
 1663SOL    HW1 9836   1.282   2.323   3.157
 1663SOL    HW2 9837   1.148   2.267   3.118
 1664SOL     OW 9838   0.072   3.429   3.206
 1664SOL    HW1 9839   0.061   3.518   3.172
 1664SOL    HW2 9840   0.167   3.416   3.208
 1665SOL     OW 9841   0.333   2.950   2.359
 1665SOL    HW1 9842   0.327   3.041   2.332
 1665SOL    HW2 9843   0.340   2.901   2.277
 1666SOL     OW 9844   1.290   3.228   2.284
 1666SOL    HW1 9845   1.318   3.318   2.305
 1666SOL    HW2 9846   1.239   3.237   2.204
 1667SOL     OW 9847   1.282   3.268   3.007
 1667SOL    HW1 9848   1.308   3.236   3.094
 1667SOL    HW2 9849   1.213   3.208   2.979
 1668SOL     OW 9850   1.566   2.561   2.331
 1668SOL    HW1 9851   1.572   2.604   2.416
 1668SOL    HW2 9852   1.500   2.611   2.283
 1669SOL     OW 9853   0.349   3.409   3.153
 1669SOL    HW1 9854   0.341   3.353   3.076
 1669SOL    HW2 9855   0.442   3.430   3.157
 1670SOL     OW 9856   1.566   2.633   3.553
 1670SOL    HW1 9857   1.486   2.685   3.565
 1670SOL    HW2 9858   1.544   2.571   3.483
 1671SOL     OW 9859   1.083   1.991   3.665
 1671SOL    HW1 9860   1.103   2.077   3.628
 1671SOL    HW2 9861   1.131   1.929   3.611
 1672SOL     OW 9862   0.485   1.983   3.590
 1672SOL    HW1 9863   0.437   1.912   3.547
 1672SOL    HW2 9864   0.419   2.050   3.606
 1673SOL     OW 9865   0.506   2.789   2.950
 1673SOL    HW1 9866   0.595   2.754   2.941
 1673SOL    HW2 9867   0.476   2.756   3.034
 1674SOL     OW 9868   1.348   2.675   2.945
 1674SOL    HW1 9869   1.378   2.702   2.858
 1674SOL    HW2 9870   1.267   2.626   2.929
 1675SOL     OW 9871   1.084   2.391   2.148
 1675SOL    HW1 9872   1.132   2.333   2.208
 1675SOL    HW2 9873   1.012   2.425   2.201
 1676SOL     OW 9874   0.241   2.139   3.167
 1676SOL    HW1 9875   0.155   2.175   3.150
 1676SOL    HW2 9876   0.228   2.080   3.242
 1677SOL     OW 9877   9.985   3.168   3.190
 1677SOL    HW1 9878   0.031   3.120   3.258
 1677SOL    HW2 9879   0.007   3.260   3.206
 1678SOL     OW 9880   0.723   2.610   2.890
 1678SOL    HW1 9881   0.741   2.577   2.803
 1678SOL    HW2 9882   0.656   2.552   2.925
 1679SOL     OW 9883   1.719   2.858   3.648
 1679SOL    HW1 9884   1.682   2.780   3.607
 1679SOL    HW2 9885   1.667   2.868   3.729
 1680SOL     OW 9886   0.334   1.967   2.508
 1680SOL    HW1 9887   0.334   2.050   2.556
 1680SOL    HW2 9888   0.350   1.900   2.574
 1681SOL     OW 9889   1.596   2.310   2.220
 1681SOL    HW1 9890   1.568   2.253   2.292
 1681SOL    HW2 9891   1.584   2.399   2.254
 1682SOL     OW 9892   1.103   2.566   2.878
 1682SOL    HW1 9893   1.047   2.615   2.938
 1682SOL    HW2 9894   1.055   2.485   2.861
 1683SOL     OW 9895   1.004   3.467   3.588
 1683SOL    HW1 9896   1.008   3.495   3.497
 1683SOL    HW2 9897   0.942   3.395   3.588
 1684SOL     OW 9898   1.884   3.301   3.443
 1684SOL    HW1 9899   1.883   3.367   3.374
 1684SOL    HW2 9900   1.956   3.328   3.501
 1685SOL     OW 9901   0.416   2.732   3.658
 1685SOL    HW1 9902   0.475   2.772   3.722
 1685SOL    HW2 9903   0.443   2.640   3.656
 1686SOL     OW 9904   1.472   2.179   1.996
 1686SOL    HW1 9905   1.436   2.096   2.028
 1686SOL    HW2 9906   1.518   2.215   2.071
 1687SOL     OW 9907   1.316   2.690   1.917
 1687SOL    HW1 9908   1.313   2.594   1.914
 1687SOL    HW2 9909   1.340   2.717   1.829
 1688SOL     OW 9910   1.056   3.259   2.617
 1688SOL    HW1 9911   1.045   3.171   2.580
 1688SOL    HW2 9912   1.109   3.247   2.695
 1689SOL     OW 9913   0.313   2.679   2.793
 1689SOL    HW1 9914   0.390   2.714   2.837
 1689SOL    HW2 9915   0.314   2.585   2.813
 1690SOL     OW 9916   0.357   2.414   2.851
 1690SOL    HW1 9917   0.351   2.321   2.873
 1690SOL    HW2 9918   0.439   2.422   2.804
 1691SOL     OW 9919   1.141   2.230   3.539
 1691SOL    HW1 9920   1.091   2.287   3.597
 1691SOL    HW2 9921   1.218   2.283   3.515
 1692SOL     OW 9922   1.142   2.054   3.326
 1692SOL    HW1 9923   1.123   2.115   3.397
 1692SOL    HW2 9924   1.178   2.109   3.256
 1693SOL     OW 9925   9.959   3.202   2.039
 1693SOL    HW1 9926   9.920   3.184   1.954
 1693SOL    HW2 9927   9.989   3.117   2.071
 1694SOL     OW 9928   0.131   3.538   2.824
 1694SOL    HW1 9929   0.139   3.453   2.780
 1694SOL    HW2 9930   0.197   3.593   2.780
 1695SOL     OW 9931   0.504   3.448   2.772
 1695SOL    HW1 9932   0.569   3.434   2.840
 1695SOL    HW2 9933   0.533   3.393   2.699
 1696SOL     OW 9934   0.925   2.682   3.064
 1696SOL    HW1 9935   0.918   2.625   3.141
 1696SOL    HW2 9936   0.849   2.659   3.010
 1697SOL     OW 9937   0.072   2.412   2.912
 1697SOL    HW1 9938   0.167   2.413   2.905
 1697SOL    HW2 9939   0.054   2.348   2.982
 1698SOL     OW 9940   1.340   2.789   3.552
 1698SOL    HW1 9941   1.366   2.876   3.520
 1698SOL    HW2 9942   1.253   2.775   3.513
 1699SOL     OW 9943   0.243   3.384   3.570
 1699SOL    HW1 9944   0.283   3.336   3.642
 1699SOL    HW2 9945   0.184   3.320   3.529
 1700SOL     OW 9946   1.016   3.548   3.322
 1700SOL    HW1 9947   0.981   3.480   3.265
 1700SOL    HW2 9948   0.970   3.627   3.297
 1701SOL     OW 9949   0.468   2.382   2.046
 1701SOL    HW1 9950   0.543   2.441   2.031
 1701SOL    HW2 9951   0.392   2.437   2.028
 1702SOL     OW 9952   0.164   3.000   3.328
 1702SOL    HW1 9953   0.175   2.985   3.422
 1702SOL    HW2 9954   0.160   2.912   3.291
 1703SOL     OW 9955   1.319   2.928   3.051
 1703SOL    HW1 9956   1.318   2.837   3.021
 1703SOL    HW2 9957   1.242   2.968   3.011
 1704SOL     OW 9958   1.376   2.711   2.190
 1704SOL    HW1 9959   1.299   2.704   2.248
 1704SOL    HW2 9960   1.341   2.695   2.102
 1705SOL     OW 9961   1.843   3.554   3.006
 1705SOL    HW1 9962   1.778   3.615   2.972
 1705SOL    HW2 9963   1.807   3.467   2.990
 1706SOL     OW 9964   1.287   3.549   3.035
 1706SOL    HW1 9965   1.210   3.573   2.985
 1706SOL    HW2 9966   1.290   3.453   3.030
 1707SOL     OW 9967   0.112   3.090   2.952
 1707SOL    HW1 9968   0.092   3.112   3.042
 1707SOL    HW2 9969   0.027   3.077   2.910
 1708SOL     OW 9970   0.685   3.563   3.592
 1708SOL    HW1 9971   0.633   3.637   3.625
 1708SOL    HW2 9972   0.685   3.575   3.497
 1709SOL     OW 9973   1.856   1.980   2.410
 1709SOL    HW1 9974   1.868   1.987   2.315
 1709SOL    HW2 9975   1.775   1.929   2.420
 1710SOL     OW 9976   1.399   3.479   2.365
 1710SOL    HW1 9977   1.418   3.507   2.276
 1710SOL    HW2 9978   1.366   3.558   2.408
 1711SOL     OW 9979   0.121   3.682   3.736
 1711SOL    HW1 9980   0.091   3.609   3.790
 1711SOL    HW2 9981   0.196   3.718   3.782
 1712SOL     OW 9982   1.279   2.846   2.547
 1712SOL    HW1 9983   1.331   2.777   2.587
 1712SOL    HW2 9984   1.339   2.891   2.487
 1713SOL     OW 9985   0.773   3.126   3.279
 1713SOL    HW1 9986   0.753   3.180   3.355
 1713SOL    HW2 9987   0.694   3.133   3.224
 1714SOL     OW 9988   0.644   3.532   1.968
 1714SOL    HW1 9989   0.668   3.535   1.875
 1714SOL    HW2 9990   0.598   3.449   1.978
 1715SOL     OW 9991   1.856   2.025   2.848
 1715SOL    HW1 9992   1.877   1.945   2.799
 1715SOL    HW2 9993   1.764   2.042   2.828
 1716SOL     OW 9994   0.323   2.208   2.633
 1716SOL    HW1 9995   0.240   2.242   2.600
 1716SOL    HW2 9996   0.306   2.185   2.724
 1717SOL     OW 9997   1.243   3.439   1.867
 1717SOL    HW1 9998   1.215   3.356   1.906
 1717SOL    HW2 9999   1.171   3.463   1.809
 1718SOL     OW10000   0.954   2.912   3.233
 1718SOL    HW110001   0.932   2.853   3.161
 1718SOL    HW210002   0.884   2.977   3.234
 1719SOL     OW10003   0.941   2.731   2.024
 1719SOL    HW110004   0.977   2.811   2.062
 1719SOL    HW210005   0.899   2.687   2.098
 1720SOL     OW10006   1.517   3.465   1.900
 1720SOL    HW110007   1.423   3.458   1.886
 1720SOL    HW210008   1.554   3.478   1.813
 1721SOL     OW10009   0.372   3.188   3.343
 1721SOL    HW110010   0.353   3.262   3.285
 1721SOL    HW210011   0.301   3.126   3.327
 1722SOL     OW10012   1.650   3.178   3.200
 1722SOL    HW110013   1.679   3.149   3.287
 1722SOL    HW210014   1.554   3.183   3.208
 1723SOL     OW10015   1.058   2.970   2.657
 1723SOL    HW110016   0.986   2.908   2.655
 1723SOL    HW210017   1.131   2.924   2.615
 1724SOL     OW10018   1.033   2.076   2.792
 1724SOL    HW110019   1.027   2.025   2.711
 1724SOL    HW210020   1.027   2.011   2.861
 1725SOL     OW10021   0.592   3.343   2.308
 1725SOL    HW110022   0.591   3.303   2.221
 1725SOL    HW210023   0.544   3.425   2.297
 1726SOL     OW10024   1.756   2.214   3.288
 1726SOL    HW110025   1.815   2.289   3.282
 1726SOL    HW210026   1.793   2.150   3.226
 1727SOL     OW10027   0.238   3.241   2.084
 1727SOL    HW110028   0.143   3.227   2.082
 1727SOL    HW210029   0.261   3.234   2.177
 1728SOL     OW10030   0.221   2.919   3.592
 1728SOL    HW110031   0.153   2.860   3.627
 1728SOL    HW210032   0.302   2.868   3.598
 1729SOL     OW10033   0.112   2.152   1.762
 1729SOL    HW110034   0.033   2.146   1.816
 1729SOL    HW210035   0.135   2.245   1.764
 1730SOL     OW10036   1.486   2.732   3.246
 1730SOL    HW110037   1.421   2.798   3.221
 1730SOL    HW210038   1.435   2.653   3.265
 1731SOL     OW10039   0.036   2.079   2.141
 1731SOL    HW110040   0.118   2.113   2.106
 1731SOL    HW210041   0.062   2.012   2.204
 1732SOL     OW10042   1.143   3.208   1.971
 1732SOL    HW110043   1.048   3.222   1.973
 1732SOL    HW210044   1.153   3.113   1.978
 1733SOL     OW10045   0.658   2.714   3.277
 1733SOL    HW110046   0.681   2.793   3.326
 1733SOL    HW210047   0.704   2.643   3.324
 1734SOL     OW10048   1.640   3.677   2.868
 1734SOL    HW110049   1.629   3.766   2.835
 1734SOL    HW210050   1.559   3.632   2.844
 1735SOL     OW10051   1.450   3.041   3.486
 1735SOL    HW110052   1.435   3.067   3.577
 1735SOL    HW210053   1.545   3.048   3.475
 1736SOL     OW10054   0.373   3.610   3.466
 1736SOL    HW110055   0.294   3.662   3.451
 1736SOL    HW210056   0.340   3.525   3.497
 1737SOL     OW10057   1.235   2.198   2.308
 1737SOL    HW110058   1.292   2.121   2.310
 1737SOL    HW210059   1.261   2.249   2.385
 1738SOL     OW10060   1.703   2.198   3.559
 1738SOL    HW110061   1.723   2.200   3.465
 1738SOL    HW210062   1.620   2.150   3.565
 1739SOL     OW10063   1.752   2.801   3.339
 1739SOL    HW110064   1.738   2.892   3.364
 1739SOL    HW210065   1.665   2.767   3.319
 1740SOL     OW10066   0.872   3.271   1.964
 1740SOL    HW110067   0.840   3.236   2.047
 1740SOL    HW210068   0.854   3.365   1.968
 1741SOL     OW10069   0.845   2.779   2.672
 1741SOL    HW110070   0.835   2.691   2.635
 1741SOL    HW210071   0.817   2.770   2.763
 1742SOL     OW10072   1.189   2.938   1.934
 1742SOL    HW110073   1.120   2.933   1.868
 1742SOL    HW210074   1.221   2.848   1.942
 1743SOL     OW10075   1.820   3.406   2.710
 1743SOL    HW110076   1.743   3.408   2.654
 1743SOL    HW210077   1.790   3.369   2.792
 1744SOL     OW10078   0.300   3.141   3.738
 1744SOL    HW110079   0.260   3.073   3.684
 1744SOL    HW210080   0.274   3.118   3.828
 1745SOL     OW10081   0.161   3.057   2.551
 1745SOL    HW110082   0.187   3.016   2.634
 1745SOL    HW210083   0.194   2.998   2.483
 1746SOL     OW10084   0.734   3.304   3.502
 1746SOL    HW110085   0.659   3.249   3.528
 1746SOL    HW210086   0.713   3.391   3.536
 1747SOL     OW10087   1.883   2.033   3.125
 1747SOL    HW110088   1.849   1.952   3.161
 1747SOL    HW210089   1.866   2.028   3.031
 1748SOL     OW10090   1.702   3.323   2.953
 1748SOL    HW110091   1.621   3.307   2.904
 1748SOL    HW210092   1.691   3.275   3.035
 1749SOL     OW10093   0.373   2.385   3.231
 1749SOL    HW110094   0.332   2.405   3.315
 1749SOL    HW210095   0.330   2.304   3.202
 1750SOL     OW10096   1.380   2.053   2.984
 1750SOL    HW110097   1.353   1.964   3.009
 1750SOL    HW210098   1.334   2.110   3.047
 1751SOL     OW10099   1.036   1.853   2.970
 1751SOL    HW110100   0.995   1.780   2.925
 1751SOL    HW210101   1.126   1.824   2.988
 1752SOL     OW10102   0.791   3.159   2.198
 1752SOL    HW110103   0.775   3.064   2.202
 1752SOL    HW210104   0.757   3.192   2.280
 1753SOL     OW10105   0.627   3.447   3.125
 1753SOL    HW110106   0.632   3.512   3.195
 1753SOL    HW210107   0.715   3.443   3.089
 1754SOL     OW10108   1.379   1.917   2.048
 1754SOL    HW110109   1.422   1.841   2.007
 1754SOL    HW210110   1.288   1.890   2.057
 1755SOL     OW10111   1.344   2.324   2.534
 1755SOL    HW110112   1.293   2.404   2.545
 1755SOL    HW210113   1.321   2.269   2.609
 1756SOL     OW10114   1.587   2.059   2.795
 1756SOL    HW110115   1.521   2.064   2.863
 1756SOL    HW210116   1.566   2.131   2.735
 1757SOL     OW10117   0.080   2.970   2.128
 1757SOL    HW110118   0.163   2.930   2.103
 1757SOL    HW210119   0.053   2.922   2.207
 1758SOL     OW10120   0.295   2.567   3.894
 1758SOL    HW110121   0.273   2.488   3.944
 1758SOL    HW210122   0.359   2.537   3.829
 1759SOL     OW10123   0.148   2.120   4.709
 1759SOL    HW110124   0.206   2.087   4.777
 1759SOL    HW210125   0.100   2.042   4.679
 1760SOL     OW10126   0.605   3.144   4.912
 1760SOL    HW110127   0.520   3.112   4.884
 1760SOL    HW210128   0.594   3.239   4.919
 1761SOL     OW10129   1.577   3.420   4.454
 1761SOL    HW110130   1.531   3.448   4.533
 1761SOL    HW210131   1.509   3.419   4.386
 1762SOL     OW10132   1.231   2.532   4.446
 1762SOL    HW110133   1.197   2.614   4.412
 1762SOL    HW210134   1.157   2.492   4.491
 1763SOL     OW10135   1.825   2.433   3.942
 1763SOL    HW110136   1.788   2.445   3.855
 1763SOL    HW210137   1.761   2.379   3.988
 1764SOL     OW10138   0.802   2.967   4.833
 1764SOL    HW110139   0.736   3.033   4.855
 1764SOL    HW210140   0.884   3.016   4.828
 1765SOL     OW10141   0.819   2.699   5.629
 1765SOL    HW110142   0.854   2.617   5.666
 1765SOL    HW210143   0.850   2.699   5.538
 1766SOL     OW10144   0.692   2.859   4.382
 1766SOL    HW110145   0.760   2.855   4.449
 1766SOL    HW210146   0.628   2.922   4.416
 1767SOL     OW10147   0.804   3.058   5.522
 1767SOL    HW110148   0.825   3.133   5.579
 1767SOL    HW210149   0.708   3.059   5.516
 1768SOL     OW10150   1.430   3.499   5.079
 1768SOL    HW110151   1.410   3.534   4.992
 1768SOL    HW210152   1.346   3.471   5.113
 1769SOL     OW10153   0.461   2.259   5.176
 1769SOL    HW110154   0.531   2.196   5.196
 1769SOL    HW210155   0.380   2.210   5.188
 1770SOL     OW10156   1.604   2.293   4.504
 1770SOL    HW110157   1.528   2.289   4.446
 1770SOL    HW210158   1.583   2.363   4.566
 1771SOL     OW10159   0.192   3.565   4.122
 1771SOL    HW110160   0.156   3.603   4.202
 1771SOL    HW210161   0.275   3.526   4.149
 1772SOL     OW10162   1.159   3.179   5.384
 1772SOL    HW110163   1.195   3.209   5.468
 1772SOL    HW210164   1.117   3.096   5.405
 1773SOL     OW10165   0.269   3.044   4.631
 1773SOL    HW110166   0.230   2.959   4.608
 1773SOL    HW210167   0.206   3.084   4.691
 1774SOL     OW10168   0.562   2.892   3.860
 1774SOL    HW110169   0.631   2.917   3.799
 1774SOL    HW210170   0.608   2.883   3.944
 1775SOL     OW10171   1.560   1.944   5.232
 1775SOL    HW110172   1.473   1.908   5.216
 1775SOL    HW210173   1.549   1.997   5.311
 1776SOL     OW10174   0.108   2.483   4.291
 1776SOL    HW110175   0.122   2.405   4.344
 1776SOL    HW210176   0.038   2.531   4.337
 1777SOL     OW10177   1.848   3.573   4.082
 1777SOL    HW110178   1.795   3.583   4.161
 1777SOL    HW210179   1.938   3.574   4.114
 1778SOL     OW10180   0.044   3.482   3.909
 1778SOL    HW110181   0.041   3.386   3.906
 1778SOL    HW210182   0.104   3.501   3.981
 1779SOL     OW10183   1.714   2.783   4.397
 1779SOL    HW110184   1.637   2.729   4.415
 1779SOL    HW210185   1.689   2.837   4.321
 1780SOL     OW10186   1.669   2.977   4.194
 1780SOL    HW110187   1.748   2.979   4.141
 1780SOL    HW210188   1.682   3.045   4.260
 1781SOL     OW10189   0.137   2.673   5.334
 1781SOL    HW110190   0.232   2.675   5.327
 1781SOL    HW210191   0.112   2.766   5.335
 1782SOL     OW10192   1.409   3.029   5.159
 1782SOL    HW110193   1.371   2.989   5.081
 1782SOL    HW210194   1.383   2.972   5.231
 1783SOL     OW10195   0.841   1.897   4.241
 1783SOL    HW110196   0.870   1.983   4.211
 1783SOL    HW210197   0.745   1.904   4.244
 1784SOL     OW10198   0.174   2.867   4.950
 1784SOL    HW110199   0.241   2.802   4.930
 1784SOL    HW210200   0.101   2.845   4.891
 1785SOL     OW10201   1.551   2.874   3.878
 1785SOL    HW110202   1.490   2.802   3.860
 1785SOL    HW210203   1.567   2.869   3.972
 1786SOL     OW10204   1.148   3.702   5.194
 1786SOL    HW110205   1.072   3.700   5.136
 1786SOL    HW210206   1.174   3.611   5.203
 1787SOL     OW10207   0.353   2.099   5.591
 1787SOL    HW110208   0.391   2.178   5.630
 1787SOL    HW210209   0.264   2.124   5.566
 1788SOL     OW10210   1.678   3.635   4.292
 1788SOL    HW110211   1.603   3.637   4.232
 1788SOL    HW210212   1.651   3.572   4.360
 1789SOL     OW10213   0.624   2.601   4.031
 1789SOL    HW110214   0.616   2.599   3.936
 1789SOL    HW210215   0.537   2.576   4.063
 1790SOL     OW10216   1.300   2.227   4.658
 1790SOL    HW110217   1.207   2.207   4.653
 1790SOL    HW210218   1.334   2.169   4.725
 1791SOL     OW10219   1.555   3.567   4.040
 1791SOL    HW110220   1.650   3.562   4.025
 1791SOL    HW210221   1.516   3.549   3.955
 1792SOL     OW10222   0.821   2.486   5.204
 1792SOL    HW110223   0.818   2.450   5.292
 1792SOL    HW210224   0.796   2.414   5.147
 1793SOL     OW10225   0.933   2.730   5.309
 1793SOL    HW110226   0.908   2.641   5.285
 1793SOL    HW210227   0.895   2.785   5.240
 1794SOL     OW10228   1.013   2.207   4.924
 1794SOL    HW110229   0.929   2.242   4.956
 1794SOL    HW210230   0.996   2.186   4.832
 1795SOL     OW10231   1.070   2.521   4.168
 1795SOL    HW110232   1.027   2.481   4.243
 1795SOL    HW210233   1.000   2.534   4.104
 1796SOL     OW10234   0.122   2.820   4.586
 1796SOL    HW110235   0.184   2.748   4.603
 1796SOL    HW210236   0.052   2.806   4.650
 1797SOL     OW10237   0.172   3.684   5.323
 1797SOL    HW110238   0.140   3.650   5.406
 1797SOL    HW210239   0.138   3.624   5.257
 1798SOL     OW10240   0.859   2.222   3.916
 1798SOL    HW110241   0.869   2.192   3.826
 1798SOL    HW210242   0.776   2.185   3.946
 1799SOL     OW10243   1.815   2.551   5.522
 1799SOL    HW110244   1.787   2.641   5.536
 1799SOL    HW210245   1.767   2.501   5.589
 1800SOL     OW10246   1.407   3.009   4.299
 1800SOL    HW110247   1.483   2.998   4.241
 1800SOL    HW210248   1.355   3.077   4.256
 1801SOL     OW10249   0.567   1.965   4.668
 1801SOL    HW110250   0.514   1.887   4.683
 1801SOL    HW210251   0.550   1.988   4.576
 1802SOL     OW10252   1.032   3.347   4.299
 1802SOL    HW110253   1.005   3.328   4.209
 1802SOL    HW210254   0.967   3.409   4.331
 1803SOL     OW10255   1.863   2.920   4.596
 1803SOL    HW110256   1.808   2.883   4.526
 1803SOL    HW210257   1.803   2.932   4.669
 1804SOL     OW10258   1.186   3.413   5.202
 1804SOL    HW110259   1.199   3.356   5.278
 1804SOL    HW210260   1.143   3.357   5.137
 1805SOL     OW10261   0.311   2.835   3.977
 1805SOL    HW110262   0.394   2.859   3.936
 1805SOL    HW210263   0.301   2.742   3.959
 1806SOL     OW10264   1.494   2.621   4.454
 1806SOL    HW110265   1.403   2.599   4.437
 1806SOL    HW210266   1.502   2.620   4.550
 1807SOL     OW10267   0.520   3.106   5.499
 1807SOL    HW110268   0.447   3.136   5.444
 1807SOL    HW210269   0.499   3.015   5.518
 1808SOL     OW10270   1.139   3.594   4.011
 1808SOL    HW110271   1.048   3.574   4.035
 1808SOL    HW210272   1.156   3.538   3.935
 1809SOL     OW10273   0.223   2.119   5.192
 1809SOL    HW110274   0.132   2.146   5.179
 1809SOL    HW210275   0.217   2.041   5.247
 1810SOL     OW10276   1.639   3.261   3.827
 1810SOL    HW110277   1.594   3.344   3.817
 1810SOL    HW210278   1.574   3.195   3.802
 1811SOL     OW10279   0.545   3.643   4.027
 1811SOL    HW110280   0.507   3.588   4.096
 1811SOL    HW210281   0.594   3.581   3.972
 1812SOL     OW10282   1.361   1.927   4.122
 1812SOL    HW110283   1.293   1.888   4.067
 1812SOL    HW210284   1.442   1.887   4.092
 1813SOL     OW10285   0.316   3.648   4.925
 1813SOL    HW110286   0.311   3.560   4.962
 1813SOL    HW210287   0.266   3.642   4.844
 1814SOL     OW10288   0.407   2.526   4.209
 1814SOL    HW110289   0.415   2.438   4.248
 1814SOL    HW210290   0.315   2.548   4.221
 1815SOL     OW10291   1.534   2.114   5.450
 1815SOL    HW110292   1.547   2.109   5.545
 1815SOL    HW210293   1.447   2.154   5.440
 1816SOL     OW10294   0.640   1.950   3.810
 1816SOL    HW110295   0.618   1.869   3.856
 1816SOL    HW210296   0.579   1.952   3.736
 1817SOL     OW10297   0.743   2.120   5.510
 1817SOL    HW110298   0.829   2.078   5.507
 1817SOL    HW210299   0.701   2.082   5.588
 1818SOL     OW10300   1.019   2.392   4.568
 1818SOL    HW110301   0.961   2.395   4.491
 1818SOL    HW210302   1.006   2.305   4.605
 1819SOL     OW10303   0.573   1.938   4.223
 1819SOL    HW110304   0.484   1.955   4.254
 1819SOL    HW210305   0.592   2.011   4.163
 1820SOL     OW10306   1.424   3.095   3.757
 1820SOL    HW110307   1.450   3.014   3.801
 1820SOL    HW210308   1.335   3.111   3.787
 1821SOL     OW10309   0.946   2.146   4.170
 1821SOL    HW110310   0.920   2.173   4.082
 1821SOL    HW210311   1.042   2.154   4.170
 1822SOL     OW10312   0.484   3.064   4.461
 1822SOL    HW110313   0.417   3.037   4.524
 1822SOL    HW210314   0.446   3.044   4.376
 1823SOL     OW10315   1.226   3.672   4.263
 1823SOL    HW110316   1.181   3.648   4.182
 1823SOL    HW210317   1.156   3.688   4.326
 1824SOL     OW10318   1.047   2.406   3.722
 1824SOL    HW110319   0.992   2.483   3.712
 1824SOL    HW210320   1.063   2.399   3.816
 1825SOL     OW10321   0.106   2.407   5.079
 1825SOL    HW110322   0.195   2.420   5.047
 1825SOL    HW210323   0.068   2.495   5.078
 1826SOL     OW10324   0.572   2.129   4.890
 1826SOL    HW110325   0.585   2.078   4.810
 1826SOL    HW210326   0.482   2.108   4.917
 1827SOL     OW10327   0.883   2.392   4.331
 1827SOL    HW110328   0.801   2.442   4.326
 1827SOL    HW210329   0.866   2.312   4.280
 1828SOL     OW10330   1.011   1.902   4.457
 1828SOL    HW110331   0.950   1.906   4.383
 1828SOL    HW210332   0.980   1.829   4.510
 1829SOL     OW10333   1.495   2.984   4.562
 1829SOL    HW110334   1.431   3.025   4.620
 1829SOL    HW210335   1.453   2.983   4.476
 1830SOL     OW10336   1.468   2.461   4.713
 1830SOL    HW110337   1.406   2.389   4.706
 1830SOL    HW210338   1.413   2.539   4.725
 1831SOL     OW10339   1.942   2.651   4.066
 1831SOL    HW110340   1.968   2.601   4.144
 1831SOL    HW210341   1.890   2.590   4.015
 1832SOL     OW10342   0.489   3.305   3.876
 1832SOL    HW110343   0.435   3.294   3.954
 1832SOL    HW210344   0.449   3.247   3.810
 1833SOL     OW10345   1.686   3.145   4.417
 1833SOL    HW110346   1.631   3.094   4.476
 1833SOL    HW210347   1.657   3.235   4.429
 1834SOL     OW10348   1.379   2.408   3.782
 1834SOL    HW110349   1.302   2.395   3.838
 1834SOL    HW210350   1.435   2.332   3.800
 1835SOL     OW10351   0.628   2.117   4.025
 1835SOL    HW110352   0.622   2.058   3.950
 1835SOL    HW210353   0.567   2.188   4.006
 1836SOL     OW10354   1.797   3.106   5.281
 1836SOL    HW110355   1.848   3.183   5.305
 1836SOL    HW210356   1.707   3.127   5.308
 1837SOL     OW10357   1.057   3.184   5.104
 1837SOL    HW110358   0.962   3.177   5.116
 1837SOL    HW210359   1.093   3.157   5.188
 1838SOL     OW10360   1.623   3.424   5.262
 1838SOL    HW110361   1.556   3.443   5.196
 1838SOL    HW210362   1.594   3.342   5.302
 1839SOL     OW10363   1.044   3.118   4.832
 1839SOL    HW110364   1.051   3.141   4.924
 1839SOL    HW210365   1.130   3.082   4.809
 1840SOL     OW10366   1.662   2.937   4.781
 1840SOL    HW110367   1.633   2.998   4.849
 1840SOL    HW210368   1.598   2.946   4.711
 1841SOL     OW10369   0.979   1.918   5.077
 1841SOL    HW110370   0.998   1.935   4.985
 1841SOL    HW210371   1.027   1.985   5.125
 1842SOL     OW10372   1.039   2.934   5.466
 1842SOL    HW110373   0.956   2.973   5.491
 1842SOL    HW210374   1.015   2.859   5.412
 1843SOL     OW10375   0.721   2.918   4.102
 1843SOL    HW110376   0.702   2.887   4.191
 1843SOL    HW210377   0.791   2.860   4.071
 1844SOL     OW10378   0.416   2.706   4.987
 1844SOL    HW110379   0.479   2.706   5.060
 1844SOL    HW210380   0.388   2.614   4.981
 1845SOL     OW10381   1.275   2.267   4.984
 1845SOL    HW110382   1.258   2.286   5.076
 1845SOL    HW210383   1.187   2.256   4.945
 1846SOL     OW10384   0.093   3.497   5.134
 1846SOL    HW110385   0.031   3.426   5.122
 1846SOL    HW210386   0.175   3.463   5.098
 1847SOL     OW10387   0.351   3.009   4.224
 1847SOL    HW110388   0.343   3.080   4.161
 1847SOL    HW210389   0.344   2.929   4.171
 1848SOL     OW10390   0.626   2.430   4.581
 1848SOL    HW110391   0.639   2.478   4.499
 1848SOL    HW210392   0.537   2.396   4.575
 1849SOL     OW10393   1.263   3.219   4.194
 1849SOL    HW110394   1.315   3.299   4.201
 1849SOL    HW210395   1.178   3.241   4.232
 1850SOL     OW10396   1.525   2.522   4.190
 1850SOL    HW110397   1.527   2.552   4.281
 1850SOL    HW210398   1.449   2.567   4.152
 1851SOL     OW10399   0.312   3.389   5.012
 1851SOL    HW110400   0.281   3.306   4.974
 1851SOL    HW210401   0.407   3.386   4.999
 1852SOL     OW10402   0.414   2.630   5.345
 1852SOL    HW110403   0.484   2.656   5.285
 1852SOL    HW210404   0.423   2.535   5.352
 1853SOL     OW10405   0.982   1.994   5.477
 1853SOL    HW110406   1.031   2.019   5.399
 1853SOL    HW210407   1.008   1.903   5.493
 1854SOL     OW10408   0.474   1.880   5.480
 1854SOL    HW110409   0.427   1.846   5.403
 1854SOL    HW210410   0.428   1.961   5.502
 1855SOL     OW10411   0.591   2.754   4.782
 1855SOL    HW110412   0.642   2.833   4.801
 1855SOL    HW210413   0.524   2.752   4.851
 1856SOL     OW10414   1.318   2.707   4.701
 1856SOL    HW110415   1.320   2.773   4.632
 1856SOL    HW210416   1.227   2.678   4.705
 1857SOL     OW10417   1.188   2.361   3.976
 1857SOL    HW110418   1.202   2.280   4.025
 1857SOL    HW210419   1.146   2.420   4.038
 1858SOL     OW10420   0.306   2.045   4.931
 1858SOL    HW110421   0.277   2.062   5.021
 1858SOL    HW210422   0.283   1.953   4.916
 1859SOL     OW10423   0.036   3.218   5.043
 1859SOL    HW110424   0.091   3.157   5.092
 1859SOL    HW210425   9.950   3.176   5.040
 1860SOL     OW10426   0.731   2.518   4.816
 1860SOL    HW110427   0.707   2.471   4.735
 1860SOL    HW210428   0.683   2.600   4.811
 1861SOL     OW10429   1.741   2.818   5.559
 1861SOL    HW110430   1.683   2.853   5.492
 1861SOL    HW210431   1.696   2.834   5.641
 1862SOL     OW10432   1.612   2.288   4.076
 1862SOL    HW110433   1.576   2.230   4.143
 1862SOL    HW210434   1.583   2.375   4.103
 1863SOL     OW10435   1.052   2.632   4.706
 1863SOL    HW110436   1.025   2.621   4.798
 1863SOL    HW210437   1.030   2.548   4.665
 1864SOL     OW10438   0.902   3.536   5.285
 1864SOL    HW110439   0.909   3.578   5.199
 1864SOL    HW210440   0.962   3.461   5.280
 1865SOL     OW10441   1.900   3.375   5.308
 1865SOL    HW110442   1.808   3.399   5.301
 1865SOL    HW210443   1.939   3.407   5.226
 1866SOL     OW10444   0.455   2.834   5.540
 1866SOL    HW110445   0.515   2.809   5.610
 1866SOL    HW210446   0.449   2.757   5.485
 1867SOL     OW10447   1.509   2.172   3.836
 1867SOL    HW110448   1.462   2.092   3.856
 1867SOL    HW210449   1.551   2.197   3.919
 1868SOL     OW10450   1.364   2.681   3.832
 1868SOL    HW110451   1.377   2.589   3.806
 1868SOL    HW210452   1.300   2.714   3.769
 1869SOL     OW10453   0.334   2.654   4.668
 1869SOL    HW110454   0.424   2.684   4.679
 1869SOL    HW210455   0.339   2.559   4.677
 1870SOL     OW10456   0.336   2.373   4.714
 1870SOL    HW110457   0.241   2.381   4.717
 1870SOL    HW210458   0.351   2.281   4.690
 1871SOL     OW10459   1.125   2.089   5.255
 1871SOL    HW110460   1.189   2.129   5.312
 1871SOL    HW210461   1.093   2.161   5.200
 1872SOL     OW10462   0.003   3.202   3.922
 1872SOL    HW110463   9.965   3.189   3.835
 1872SOL    HW210464   0.021   3.113   3.953
 1873SOL     OW10465   0.165   3.603   4.691
 1873SOL    HW110466   0.169   3.514   4.657
 1873SOL    HW210467   0.213   3.655   4.626
 1874SOL     OW10468   0.956   2.580   4.960
 1874SOL    HW110469   0.939   2.554   5.051
 1874SOL    HW210470   0.876   2.557   4.913
 1875SOL     OW10471   0.055   2.368   4.789
 1875SOL    HW110472   0.067   2.277   4.761
 1875SOL    HW210473   0.051   2.364   4.884
 1876SOL     OW10474   0.157   2.397   5.371
 1876SOL    HW110475   0.171   2.361   5.284
 1876SOL    HW210476   0.135   2.489   5.356
 1877SOL     OW10477   1.363   2.883   5.393
 1877SOL    HW110478   1.350   2.947   5.463
 1877SOL    HW210479   1.336   2.799   5.430
 1878SOL     OW10480   0.871   2.492   3.987
 1878SOL    HW110481   0.862   2.403   3.954
 1878SOL    HW210482   0.781   2.522   4.001
 1879SOL     OW10483   1.711   2.494   4.859
 1879SOL    HW110484   1.698   2.432   4.931
 1879SOL    HW210485   1.632   2.486   4.806
 1880SOL     OW10486   0.211   3.401   5.420
 1880SOL    HW110487   0.210   3.360   5.507
 1880SOL    HW210488   0.259   3.340   5.365
 1881SOL     OW10489   0.760   2.304   4.993
 1881SOL    HW110490   0.693   2.239   4.971
 1881SOL    HW210491   0.742   2.377   4.933
 1882SOL     OW10492   0.458   2.301   3.930
 1882SOL    HW110493   0.468   2.358   3.854
 1882SOL    HW210494   0.364   2.283   3.935
 1883SOL     OW10495   0.192   3.029   5.167
 1883SOL    HW110496   0.139   2.986   5.234
 1883SOL    HW210497   0.192   2.967   5.094
 1884SOL     OW10498   1.356   2.894   4.911
 1884SOL    HW110499   1.346   2.821   4.850
 1884SOL    HW210500   1.340   2.972   4.858
 1885SOL     OW10501   1.299   2.661   4.104
 1885SOL    HW110502   1.217   2.614   4.115
 1885SOL    HW210503   1.307   2.673   4.009
 1886SOL     OW10504   1.792   3.525   4.905
 1886SOL    HW110505   1.748   3.586   4.846
 1886SOL    HW210506   1.765   3.438   4.875
 1887SOL     OW10507   0.064   3.172   4.773
 1887SOL    HW110508   0.070   3.192   4.866
 1887SOL    HW210509   9.981   3.125   4.763
 1888SOL     OW10510   0.702   3.542   5.473
 1888SOL    HW110511   0.630   3.585   5.426
 1888SOL    HW210512   0.776   3.545   5.413
 1889SOL     OW10513   1.864   1.987   4.269
 1889SOL    HW110514   1.861   2.003   4.175
 1889SOL    HW210515   1.795   1.922   4.285
 1890SOL     OW10516   1.400   3.457   4.243
 1890SOL    HW110517   1.446   3.486   4.165
 1890SOL    HW210518   1.335   3.525   4.260
 1891SOL     OW10519   0.029   3.634   5.616
 1891SOL    HW110520   0.011   3.553   5.665
 1891SOL    HW210521   0.112   3.666   5.652
 1892SOL     OW10522   1.242   2.796   4.341
 1892SOL    HW110523   1.244   2.751   4.257
 1892SOL    HW210524   1.303   2.869   4.331
 1893SOL     OW10525   0.785   3.161   5.132
 1893SOL    HW110526   0.746   3.208   5.206
 1893SOL    HW210527   0.721   3.172   5.061
 1894SOL     OW10528   0.700   3.474   3.860
 1894SOL    HW110529   0.701   3.502   3.769
 1894SOL    HW210530   0.629   3.409   3.865
 1895SOL     OW10531   1.763   3.636   5.157
 1895SOL    HW110532   1.771   3.592   5.072
 1895SOL    HW210533   1.702   3.582   5.207
 1896SOL     OW10534   1.857   2.015   4.719
 1896SOL    HW110535   1.880   1.927   4.690
 1896SOL    HW210536   1.766   2.027   4.691
 1897SOL     OW10537   0.150   2.257   4.460
 1897SOL    HW110538   0.109   2.191   4.403
 1897SOL    HW210539   0.143   2.221   4.548
 1898SOL     OW10540   1.202   3.451   3.779
 1898SOL    HW110541   1.192   3.359   3.803
 1898SOL    HW210542   1.136   3.467   3.712
 1899SOL     OW10543   0.808   2.883   5.109
 1899SOL    HW110544   0.819   2.884   5.014
 1899SOL    HW210545   0.800   2.975   5.134
 1900SOL     OW10546   0.928   2.768   4.001
 1900SOL    HW110547   0.987   2.784   3.927
 1900SOL    HW210548   0.896   2.679   3.988
 1901SOL     OW10549   1.477   3.489   3.785
 1901SOL    HW110550   1.383   3.471   3.785
 1901SOL    HW210551   1.492   3.533   3.701
 1902SOL     OW10552   0.359   3.212   5.286
 1902SOL    HW110553   0.421   3.231   5.216
 1902SOL    HW210554   0.302   3.144   5.250
 1903SOL     OW10555   1.592   3.129   4.968
 1903SOL    HW110556   1.538   3.107   5.043
 1903SOL    HW210557   1.531   3.168   4.905
 1904SOL     OW10558   1.096   2.997   4.478
 1904SOL    HW110559   1.019   2.953   4.512
 1904SOL    HW210560   1.138   2.931   4.421
 1905SOL     OW10561   1.044   2.109   4.653
 1905SOL    HW110562   1.026   2.068   4.568
 1905SOL    HW210563   1.045   2.036   4.715
 1906SOL     OW10564   1.714   2.325   5.080
 1906SOL    HW110565   1.795   2.345   5.126
 1906SOL    HW210566   1.729   2.238   5.041
 1907SOL     OW10567   0.293   3.234   4.060
 1907SOL    HW110568   0.199   3.238   4.049
 1907SOL    HW210569   0.310   3.283   4.140
 1908SOL     OW10570   0.246   3.010   5.518
 1908SOL    HW110571   0.175   2.974   5.464
 1908SOL    HW210572   0.306   2.937   5.531
 1909SOL     OW10573   0.661   2.071   5.248
 1909SOL    HW110574   0.743   2.096   5.204
 1909SOL    HW210575   0.678   2.087   5.341
 1910SOL     OW10576   0.049   2.247   3.701
 1910SOL    HW110577   0.004   2.162   3.705
 1910SOL    HW210578   0.087   2.249   3.613
 1911SOL     OW10579   1.381   2.679   5.086
 1911SOL    HW110580   1.286   2.672   5.095
 1911SOL    HW210581   1.394   2.759   5.036
 1912SOL     OW10582   0.169   2.003   4.022
 1912SOL    HW110583   0.102   1.984   4.088
 1912SOL    HW210584   0.206   1.917   4.000
 1913SOL     OW10585   1.163   3.185   3.843
 1913SOL    HW110586   1.071   3.186   3.818
 1913SOL    HW210587   1.163   3.155   3.934
 1914SOL     OW10588   0.623   2.685   5.172
 1914SOL    HW110589   0.680   2.760   5.157
 1914SOL    HW210590   0.684   2.611   5.181
 1915SOL     OW10591   1.637   3.675   4.737
 1915SOL    HW110592   1.612   3.746   4.678
 1915SOL    HW210593   1.568   3.610   4.726
 1916SOL     OW10594   0.814   2.387   5.460
 1916SOL    HW110595   0.844   2.419   5.545
 1916SOL    HW210596   0.776   2.301   5.480
 1917SOL     OW10597   1.542   3.177   5.357
 1917SOL    HW110598   1.514   3.146   5.443
 1917SOL    HW210599   1.484   3.134   5.295
 1918SOL     OW10600   0.445   3.618   5.320
 1918SOL    HW110601   0.352   3.640   5.318
 1918SOL    HW210602   0.448   3.524   5.302
 1919SOL     OW10603   1.799   2.753   4.937
 1919SOL    HW110604   1.766   2.667   4.912
 1919SOL    HW210605   1.749   2.814   4.884
 1920SOL     OW10606   1.227   2.166   4.170
 1920SOL    HW110607   1.278   2.086   4.154
 1920SOL    HW210608   1.269   2.205   4.246
 1921SOL     OW10609   0.657   2.573   4.345
 1921SOL    HW110610   0.671   2.667   4.349
 1921SOL    HW210611   0.582   2.562   4.286
 1922SOL     OW10612   1.790   2.156   5.314
 1922SOL    HW110613   1.733   2.133   5.241
 1922SOL    HW210614   1.734   2.149   5.391
 1923SOL     OW10615   1.824   2.838   5.213
 1923SOL    HW110616   1.807   2.930   5.233
 1923SOL    HW210617   1.792   2.826   5.124
 1924SOL     OW10618   0.887   3.250   3.823
 1924SOL    HW110619   0.859   3.215   3.907
 1924SOL    HW210620   0.847   3.337   3.819
 1925SOL     OW10621   0.893   2.846   4.593
 1925SOL    HW110622   0.939   2.766   4.619
 1925SOL    HW210623   0.848   2.876   4.672
 1926SOL     OW10624   1.082   2.792   3.769
 1926SOL    HW110625   1.073   2.871   3.715
 1926SOL    HW210626   1.021   2.729   3.730
 1927SOL     OW10627   1.829   3.440   4.571
 1927SOL    HW110628   1.748   3.440   4.519
 1927SOL    HW210629   1.807   3.390   4.650
 1928SOL     OW10630   0.199   3.245   5.647
 1928SOL    HW110631   0.211   3.164   5.598
 1928SOL    HW210632   0.244   3.231   5.730
 1929SOL     OW10633   0.101   3.179   4.365
 1929SOL    HW110634   0.144   3.093   4.370
 1929SOL    HW210635   0.168   3.237   4.330
 1930SOL     OW10636   0.661   3.289   5.341
 1930SOL    HW110637   0.617   3.225   5.397
 1930SOL    HW210638   0.682   3.362   5.400
 1931SOL     OW10639   1.803   2.082   4.988
 1931SOL    HW110640   1.793   1.997   5.031
 1931SOL    HW210641   1.820   2.060   4.896
 1932SOL     OW10642   0.401   2.288   4.349
 1932SOL    HW110643   0.399   2.204   4.303
 1932SOL    HW210644   0.318   2.293   4.395
 1933SOL     OW10645   1.711   3.297   4.778
 1933SOL    HW110646   1.620   3.297   4.749
 1933SOL    HW210647   1.715   3.231   4.846
 1934SOL     OW10648   0.365   2.436   4.988
 1934SOL    HW110649   0.412   2.374   5.044
 1934SOL    HW210650   0.377   2.402   4.899
 1935SOL     OW10651   1.403   2.062   4.857
 1935SOL    HW110652   1.372   1.981   4.896
 1935SOL    HW210653   1.369   2.131   4.914
 1936SOL     OW10654   1.046   1.873   4.801
 1936SOL    HW110655   1.010   1.813   4.736
 1936SOL    HW210656   1.126   1.831   4.831
 1937SOL     OW10657   0.789   3.181   4.067
 1937SOL    HW110658   0.773   3.087   4.076
 1937SOL    HW210659   0.710   3.222   4.102
 1938SOL     OW10660   1.364   1.941   3.818
 1938SOL    HW110661   1.394   1.853   3.793
 1938SOL    HW210662   1.269   1.935   3.816
 1939SOL     OW10663   1.349   2.287   4.392
 1939SOL    HW110664   1.310   2.374   4.387
 1939SOL    HW210665   1.325   2.255   4.480
 1940SOL     OW10666   1.593   2.048   4.656
 1940SOL    HW110667   1.530   2.061   4.726
 1940SOL    HW210668   1.585   2.126   4.601
 1941SOL     OW10669   0.053   2.942   3.992
 1941SOL    HW110670   0.141   2.904   3.991
 1941SOL    HW210671   9.994   2.867   4.002
 1942SOL     OW10672   0.890   3.518   4.081
 1942SOL    HW110673   0.814   3.498   4.027
 1942SOL    HW210674   0.855   3.523   4.170
 1943SOL     OW10675   0.211   2.455   5.642
 1943SOL    HW110676   0.180   2.544   5.655
 1943SOL    HW210677   0.198   2.438   5.549
 1944SOL     OW10678   0.238   2.189   6.604
 1944SOL    HW110679   0.257   2.134   6.679
 1944SOL    HW210680   0.167   2.246   6.634
 1945SOL     OW10681   0.027   2.197   6.211
 1945SOL    HW110682   9.945   2.245   6.198
 1945SOL    HW210683   0.075   2.209   6.129
 1946SOL     OW10684   1.546   3.446   6.297
 1946SOL    HW110685   1.471   3.458   6.354
 1946SOL    HW210686   1.516   3.477   6.211
 1947SOL     OW10687   1.202   2.559   6.310
 1947SOL    HW110688   1.128   2.546   6.369
 1947SOL    HW210689   1.189   2.495   6.240
 1948SOL     OW10690   1.680   2.414   5.723
 1948SOL    HW110691   1.593   2.429   5.684
 1948SOL    HW210692   1.661   2.380   5.811
 1949SOL     OW10693   0.926   2.624   7.447
 1949SOL    HW110694   0.834   2.616   7.470
 1949SOL    HW210695   0.925   2.651   7.355
 1950SOL     OW10696   0.698   2.874   6.233
 1950SOL    HW110697   0.751   2.859   6.311
 1950SOL    HW210698   0.619   2.917   6.266
 1951SOL     OW10699   0.723   3.039   7.425
 1951SOL    HW110700   0.759   3.124   7.449
 1951SOL    HW210701   0.641   3.059   7.380
 1952SOL     OW10702   0.461   2.262   7.053
 1952SOL    HW110703   0.539   2.207   7.058
 1952SOL    HW210704   0.392   2.208   7.091
 1953SOL     OW10705   1.642   2.350   6.326
 1953SOL    HW110706   1.556   2.323   6.293
 1953SOL    HW210707   1.635   2.445   6.337
 1954SOL     OW10708   0.250   3.542   6.069
 1954SOL    HW110709   0.182   3.608   6.057
 1954SOL    HW210710   0.322   3.572   6.013
 1955SOL     OW10711   1.160   3.149   7.285
 1955SOL    HW110712   1.168   3.161   7.379
 1955SOL    HW210713   1.097   3.078   7.275
 1956SOL     OW10714   0.308   3.284   6.142
 1956SOL    HW110715   0.275   3.374   6.133
 1956SOL    HW210716   0.241   3.239   6.193
 1957SOL     OW10717   0.573   3.701   6.993
 1957SOL    HW110718   0.503   3.665   7.048
 1957SOL    HW210719   0.611   3.772   7.045
 1958SOL     OW10720   0.620   2.819   5.769
 1958SOL    HW110721   0.694   2.781   5.721
 1958SOL    HW210722   0.660   2.876   5.834
 1959SOL     OW10723   0.122   2.599   6.152
 1959SOL    HW110724   0.087   2.534   6.091
 1959SOL    HW210725   0.049   2.659   6.168
 1960SOL     OW10726   1.903   3.623   5.962
 1960SOL    HW110727   1.833   3.627   6.027
 1960SOL    HW210728   1.865   3.573   5.890
 1961SOL     OW10729   9.964   3.372   5.708
 1961SOL    HW110730   0.047   3.329   5.689
 1961SOL    HW210731   9.947   3.351   5.800
 1962SOL     OW10732   1.713   2.790   6.280
 1962SOL    HW110733   1.647   2.722   6.286
 1962SOL    HW210734   1.693   2.837   6.199
 1963SOL     OW10735   1.673   2.958   6.055
 1963SOL    HW110736   1.760   2.962   6.015
 1963SOL    HW210737   1.660   3.044   6.094
 1964SOL     OW10738   0.116   2.672   7.246
 1964SOL    HW110739   0.198   2.652   7.202
 1964SOL    HW210740   0.051   2.677   7.176
 1965SOL     OW10741   1.415   3.111   6.973
 1965SOL    HW110742   1.398   3.027   6.930
 1965SOL    HW210743   1.431   3.087   7.065
 1966SOL     OW10744   0.884   1.931   6.083
 1966SOL    HW110745   0.906   2.018   6.049
 1966SOL    HW210746   0.789   1.929   6.085
 1967SOL     OW10747   1.584   2.876   5.791
 1967SOL    HW110748   1.521   2.804   5.800
 1967SOL    HW210749   1.607   2.899   5.881
 1968SOL     OW10750   0.312   2.133   7.334
 1968SOL    HW110751   0.315   2.228   7.324
 1968SOL    HW210752   0.223   2.116   7.366
 1969SOL     OW10753   1.403   3.264   6.579
 1969SOL    HW110754   1.355   3.327   6.526
 1969SOL    HW210755   1.393   3.180   6.534
 1970SOL     OW10756   1.703   3.648   6.164
 1970SOL    HW110757   1.624   3.649   6.110
 1970SOL    HW210758   1.681   3.591   6.238
 1971SOL     OW10759   0.506   2.573   5.842
 1971SOL    HW110760   0.555   2.654   5.827
 1971SOL    HW210761   0.472   2.581   5.930
 1972SOL     OW10762   1.284   2.239   6.501
 1972SOL    HW110763   1.195   2.203   6.508
 1972SOL    HW210764   1.338   2.178   6.551
 1973SOL     OW10765   1.628   3.593   5.857
 1973SOL    HW110766   1.560   3.628   5.800
 1973SOL    HW210767   1.580   3.555   5.931
 1974SOL     OW10768   0.812   2.477   7.077
 1974SOL    HW110769   0.772   2.443   7.157
 1974SOL    HW210770   0.785   2.415   7.008
 1975SOL     OW10771   1.496   2.422   7.269
 1975SOL    HW110772   1.433   2.443   7.338
 1975SOL    HW210773   1.484   2.329   7.253
 1976SOL     OW10774   0.925   2.716   7.183
 1976SOL    HW110775   1.003   2.681   7.141
 1976SOL    HW210776   0.853   2.665   7.146
 1977SOL     OW10777   1.030   2.265   6.783
 1977SOL    HW110778   0.942   2.271   6.820
 1977SOL    HW210779   1.020   2.209   6.706
 1978SOL     OW10780   1.013   2.594   6.025
 1978SOL    HW110781   1.072   2.533   6.068
 1978SOL    HW210782   0.957   2.539   5.969
 1979SOL     OW10783   0.080   3.695   7.176
 1979SOL    HW110784   0.125   3.636   7.237
 1979SOL    HW210785   9.988   3.672   7.184
 1980SOL     OW10786   1.729   2.373   7.433
 1980SOL    HW110787   1.638   2.399   7.416
 1980SOL    HW210788   1.763   2.345   7.348
 1981SOL     OW10789   1.368   3.081   6.167
 1981SOL    HW110790   1.388   3.003   6.115
 1981SOL    HW210791   1.273   3.078   6.179
 1982SOL     OW10792   0.541   1.983   6.539
 1982SOL    HW110793   0.556   2.037   6.617
 1982SOL    HW210794   0.537   2.046   6.467
 1983SOL     OW10795   0.407   3.682   6.456
 1983SOL    HW110796   0.483   3.625   6.466
 1983SOL    HW210797   0.438   3.767   6.487
 1984SOL     OW10798   1.806   2.969   6.470
 1984SOL    HW110799   1.774   2.907   6.405
 1984SOL    HW210800   1.733   2.978   6.532
 1985SOL     OW10801   0.266   2.833   5.816
 1985SOL    HW110802   0.357   2.819   5.788
 1985SOL    HW210803   0.214   2.786   5.751
 1986SOL     OW10804   1.498   2.605   6.263
 1986SOL    HW110805   1.442   2.527   6.264
 1986SOL    HW210806   1.438   2.678   6.280
 1987SOL     OW10807   0.464   3.109   7.317
 1987SOL    HW110808   0.427   3.050   7.251
 1987SOL    HW210809   0.388   3.142   7.364
 1988SOL     OW10810   0.167   2.159   7.077
 1988SOL    HW110811   0.146   2.251   7.064
 1988SOL    HW210812   0.180   2.150   7.172
 1989SOL     OW10813   1.703   3.239   5.671
 1989SOL    HW110814   1.653   3.315   5.643
 1989SOL    HW210815   1.644   3.165   5.655
 1990SOL     OW10816   0.461   3.631   5.903
 1990SOL    HW110817   0.519   3.680   5.960
 1990SOL    HW210818   0.519   3.573   5.854
 1991SOL     OW10819   1.384   1.997   6.028
 1991SOL    HW110820   1.319   2.067   6.033
 1991SOL    HW210821   1.375   1.963   5.939
 1992SOL     OW10822   0.246   3.660   6.819
 1992SOL    HW110823   0.281   3.572   6.835
 1992SOL    HW210824   0.205   3.654   6.733
 1993SOL     OW10825   0.962   3.585   6.516
 1993SOL    HW110826   1.020   3.560   6.587
 1993SOL    HW210827   0.985   3.527   6.444
 1994SOL     OW10828   0.390   2.566   6.096
 1994SOL    HW110829   0.404   2.473   6.114
 1994SOL    HW210830   0.297   2.580   6.112
 1995SOL     OW10831   1.400   2.159   7.312
 1995SOL    HW110832   1.434   2.167   7.401
 1995SOL    HW210833   1.389   2.065   7.299
 1996SOL     OW10834   0.625   1.939   5.704
 1996SOL    HW110835   0.668   1.858   5.733
 1996SOL    HW210836   0.578   1.914   5.625
 1997SOL     OW10837   0.783   2.117   7.341
 1997SOL    HW110838   0.867   2.077   7.318
 1997SOL    HW210839   0.748   2.060   7.409
 1998SOL     OW10840   0.838   3.352   6.802
 1998SOL    HW110841   0.841   3.316   6.713
 1998SOL    HW210842   0.902   3.423   6.801
 1999SOL     OW10843   1.389   2.455   7.005
 1999SOL    HW110844   1.428   2.446   7.092
 1999SOL    HW210845   1.379   2.550   6.993
 2000SOL     OW10846   0.949   2.393   6.443
 2000SOL    HW110847   0.926   2.379   6.351
 2000SOL    HW210848   0.965   2.306   6.478
 2001SOL     OW10849   0.610   1.921   6.071
 2001SOL    HW110850   0.546   1.918   6.143
 2001SOL    HW210851   0.576   1.989   6.012
 2002SOL     OW10852   1.476   3.074   5.610
 2002SOL    HW110853   1.486   3.008   5.678
 2002SOL    HW210854   1.400   3.125   5.637
 2003SOL     OW10855   0.305   1.867   5.758
 2003SOL    HW110856   0.358   1.934   5.716
 2003SOL    HW210857   0.367   1.814   5.808
 2004SOL     OW10858   1.084   2.522   7.064
 2004SOL    HW110859   0.996   2.486   7.070
 2004SOL    HW210860   1.138   2.464   7.118
 2005SOL     OW10861   1.310   3.495   6.450
 2005SOL    HW110862   1.248   3.501   6.377
 2005SOL    HW210863   1.255   3.499   6.528
 2006SOL     OW10864   0.462   2.997   6.314
 2006SOL    HW110865   0.408   2.951   6.378
 2006SOL    HW210866   0.418   2.982   6.231
 2007SOL     OW10867   0.106   2.432   7.034
 2007SOL    HW110868   0.191   2.446   6.992
 2007SOL    HW210869   0.046   2.489   6.986
 2008SOL     OW10870   0.568   2.111   6.788
 2008SOL    HW110871   0.611   2.051   6.850
 2008SOL    HW210872   0.475   2.106   6.810
 2009SOL     OW10873   0.916   2.331   6.171
 2009SOL    HW110874   0.879   2.345   6.084
 2009SOL    HW210875   1.010   2.328   6.157
 2010SOL     OW10876   1.030   1.923   6.323
 2010SOL    HW110877   0.983   1.932   6.240
 2010SOL    HW210878   0.990   1.848   6.366
 2011SOL     OW10879   1.429   3.021   6.433
 2011SOL    HW110880   1.385   2.937   6.422
 2011SOL    HW210881   1.422   3.063   6.347
 2012SOL     OW10882   1.406   2.434   6.660
 2012SOL    HW110883   1.367   2.388   6.586
 2012SOL    HW210884   1.380   2.383   6.737
 2013SOL     OW10885   1.910   2.616   5.891
 2013SOL    HW110886   1.941   2.568   5.968
 2013SOL    HW210887   1.815   2.602   5.891
 2014SOL     OW10888   0.515   3.269   5.735
 2014SOL    HW110889   0.449   3.229   5.791
 2014SOL    HW210890   0.520   3.211   5.658
 2015SOL     OW10891   1.616   3.196   6.182
 2015SOL    HW110892   1.607   3.284   6.219
 2015SOL    HW210893   1.526   3.165   6.171
 2016SOL     OW10894   0.507   2.109   5.890
 2016SOL    HW110895   0.554   2.054   5.828
 2016SOL    HW210896   0.494   2.192   5.844
 2017SOL     OW10897   1.771   3.094   7.199
 2017SOL    HW110898   1.756   3.017   7.144
 2017SOL    HW210899   1.825   3.062   7.271
 2018SOL     OW10900   1.558   3.465   7.215
 2018SOL    HW110901   1.517   3.539   7.171
 2018SOL    HW210902   1.498   3.392   7.199
 2019SOL     OW10903   1.102   3.086   6.687
 2019SOL    HW110904   1.018   3.042   6.681
 2019SOL    HW210905   1.114   3.128   6.602
 2020SOL     OW10906   1.589   3.000   6.650
 2020SOL    HW110907   1.519   2.987   6.715
 2020SOL    HW210908   1.543   3.006   6.567
 2021SOL     OW10909   0.898   1.995   6.987
 2021SOL    HW110910   0.953   1.917   6.993
 2021SOL    HW210911   0.958   2.068   7.003
 2022SOL     OW10912   0.971   2.951   7.325
 2022SOL    HW110913   0.885   2.980   7.354
 2022SOL    HW210914   0.953   2.878   7.266
 2023SOL     OW10915   0.768   2.953   5.977
 2023SOL    HW110916   0.741   2.916   6.061
 2023SOL    HW210917   0.855   2.916   5.961
 2024SOL     OW10918   1.293   2.248   6.855
 2024SOL    HW110919   1.315   2.320   6.914
 2024SOL    HW210920   1.202   2.265   6.830
 2025SOL     OW10921   0.047   3.449   6.926
 2025SOL    HW110922   0.061   3.525   6.983
 2025SOL    HW210923   0.133   3.429   6.891
 2026SOL     OW10924   0.343   2.944   6.076
 2026SOL    HW110925   0.351   3.009   6.005
 2026SOL    HW210926   0.310   2.866   6.032
 2027SOL     OW10927   0.618   2.417   6.426
 2027SOL    HW110928   0.596   2.498   6.381
 2027SOL    HW210929   0.649   2.358   6.357
 2028SOL     OW10930   1.625   2.614   5.998
 2028SOL    HW110931   1.588   2.600   6.085
 2028SOL    HW210932   1.549   2.625   5.941
 2029SOL     OW10933   0.302   3.381   6.849
 2029SOL    HW110934   0.287   3.286   6.850
 2029SOL    HW210935   0.397   3.390   6.857
 2030SOL     OW10936   0.376   2.590   7.154
 2030SOL    HW110937   0.415   2.677   7.156
 2030SOL    HW210938   0.433   2.540   7.096
 2031SOL     OW10939   1.640   2.671   7.252
 2031SOL    HW110940   1.553   2.710   7.249
 2031SOL    HW210941   1.624   2.576   7.247
 2032SOL     OW10942   1.014   1.989   7.276
 2032SOL    HW110943   1.050   2.038   7.202
 2032SOL    HW210944   1.036   1.898   7.258
 2033SOL     OW10945   0.472   1.923   7.401
 2033SOL    HW110946   0.445   1.860   7.335
 2033SOL    HW210947   0.424   2.003   7.379
 2034SOL     OW10948   0.620   2.763   6.673
 2034SOL    HW110949   0.682   2.788   6.604
 2034SOL    HW210950   0.540   2.740   6.626
 2035SOL     OW10951   1.309   2.697   6.642
 2035SOL    HW110952   1.227   2.683   6.595
 2035SOL    HW210953   1.350   2.610   6.645
 2036SOL     OW10954   0.299   2.064   6.846
 2036SOL    HW110955   0.251   2.086   6.925
 2036SOL    HW210956   0.287   1.970   6.836
 2037SOL     OW10957   0.006   3.178   6.946
 2037SOL    HW110958   0.089   3.138   6.920
 2037SOL    HW210959   0.022   3.272   6.939
 2038SOL     OW10960   0.767   2.514   6.678
 2038SOL    HW110961   0.767   2.480   6.588
 2038SOL    HW210962   0.715   2.594   6.673
 2039SOL     OW10963   1.729   2.837   7.464
 2039SOL    HW110964   1.694   2.773   7.403
 2039SOL    HW210965   1.681   2.821   7.545
 2040SOL     OW10966   0.409   1.936   6.254
 2040SOL    HW110967   0.356   2.013   6.277
 2040SOL    HW210968   0.375   1.866   6.310
 2041SOL     OW10969   1.593   2.260   5.951
 2041SOL    HW110970   1.633   2.189   6.002
 2041SOL    HW210971   1.521   2.291   6.005
 2042SOL     OW10972   1.044   2.635   6.550
 2042SOL    HW110973   1.026   2.640   6.644
 2042SOL    HW210974   1.002   2.553   6.522
 2043SOL     OW10975   1.032   3.395   7.312
 2043SOL    HW110976   0.989   3.444   7.242
 2043SOL    HW210977   1.068   3.317   7.269
 2044SOL     OW10978   1.810   3.364   7.144
 2044SOL    HW110979   1.730   3.412   7.167
 2044SOL    HW210980   1.792   3.273   7.168
 2045SOL     OW10981   0.380   2.813   7.473
 2045SOL    HW110982   0.469   2.821   7.506
 2045SOL    HW210983   0.386   2.838   7.381
 2046SOL     OW10984   1.572   2.100   5.723
 2046SOL    HW110985   1.505   2.033   5.738
 2046SOL    HW210986   1.564   2.159   5.798
 2047SOL     OW10987   1.138   3.225   6.452
 2047SOL    HW110988   1.073   3.162   6.420
 2047SOL    HW210989   1.117   3.306   6.406
 2048SOL     OW10990   0.388   2.674   6.533
 2048SOL    HW110991   0.431   2.671   6.447
 2048SOL    HW210992   0.389   2.583   6.562
 2049SOL     OW10993   0.410   2.409   6.606
 2049SOL    HW110994   0.356   2.332   6.591
 2049SOL    HW210995   0.487   2.397   6.550
 2050SOL     OW10996   1.193   2.338   7.254
 2050SOL    HW110997   1.133   2.341   7.328
 2050SOL    HW210998   1.258   2.272   7.278
 2051SOL     OW10999   1.108   2.155   7.069
 2051SOL    HW111000   1.139   2.227   7.123
 2051SOL    HW211001   1.167   2.154   6.994
 2052SOL     OW11002   0.153   3.642   6.560
 2052SOL    HW111003   0.123   3.553   6.541
 2052SOL    HW211004   0.236   3.649   6.514
 2053SOL     OW11005   0.991   2.632   6.818
 2053SOL    HW111006   1.031   2.591   6.895
 2053SOL    HW211007   0.914   2.577   6.799
 2054SOL     OW11008   0.096   2.391   6.724
 2054SOL    HW111009   0.170   2.393   6.784
 2054SOL    HW211010   0.029   2.444   6.766
 2055SOL     OW11011   0.242   2.392   7.280
 2055SOL    HW111012   0.302   2.460   7.249
 2055SOL    HW211013   0.161   2.406   7.230
 2056SOL     OW11014   1.395   2.795   7.245
 2056SOL    HW111015   1.409   2.889   7.236
 2056SOL    HW211016   1.372   2.765   7.157
 2057SOL     OW11017   1.647   2.536   6.756
 2057SOL    HW111018   1.673   2.471   6.821
 2057SOL    HW211019   1.570   2.500   6.714
 2058SOL     OW11020   0.758   2.311   6.859
 2058SOL    HW111021   0.692   2.247   6.833
 2058SOL    HW211022   0.753   2.379   6.792
 2059SOL     OW11023   0.946   3.542   7.098
 2059SOL    HW111024   0.927   3.539   7.004
 2059SOL    HW211025   1.037   3.570   7.103
 2060SOL     OW11026   0.438   2.329   5.735
 2060SOL    HW111027   0.494   2.398   5.770
 2060SOL    HW211028   0.361   2.375   5.702
 2061SOL     OW11029   1.334   2.939   6.761
 2061SOL    HW111030   1.332   2.855   6.715
 2061SOL    HW211031   1.252   2.981   6.737
 2062SOL     OW11032   1.400   2.679   5.845
 2062SOL    HW111033   1.313   2.703   5.875
 2062SOL    HW211034   1.387   2.648   5.755
 2063SOL     OW11035   1.708   3.535   6.750
 2063SOL    HW111036   1.651   3.585   6.691
 2063SOL    HW211037   1.688   3.443   6.729
 2064SOL     OW11038   0.058   3.096   6.545
 2064SOL    HW111039   0.105   3.051   6.616
 2064SOL    HW211040   9.972   3.114   6.582
 2065SOL     OW11041   0.727   3.520   7.303
 2065SOL    HW111042   0.669   3.596   7.313
 2065SOL    HW211043   0.788   3.545   7.234
 2066SOL     OW11044   1.658   2.015   6.075
 2066SOL    HW111045   1.682   1.929   6.110
 2066SOL    HW211046   1.563   2.013   6.069
 2067SOL     OW11047   1.301   2.809   6.310
 2067SOL    HW111048   1.258   2.723   6.317
 2067SOL    HW211049   1.234   2.866   6.271
 2068SOL     OW11050   0.760   3.139   6.968
 2068SOL    HW111051   0.738   3.178   7.053
 2068SOL    HW211052   0.789   3.212   6.915
 2069SOL     OW11053   0.659   3.502   5.746
 2069SOL    HW111054   0.671   3.521   5.653
 2069SOL    HW211055   0.612   3.418   5.747
 2070SOL     OW11056   1.779   3.698   6.964
 2070SOL    HW111057   1.748   3.636   6.898
 2070SOL    HW211058   1.700   3.746   6.990
 2071SOL     OW11059   1.897   2.046   6.384
 2071SOL    HW111060   1.916   1.953   6.399
 2071SOL    HW211061   1.809   2.059   6.418
 2072SOL     OW11062   0.270   2.157   6.335
 2072SOL    HW111063   0.184   2.178   6.298
 2072SOL    HW211064   0.258   2.165   6.430
 2073SOL     OW11065   1.026   2.855   5.951
 2073SOL    HW111066   1.065   2.849   5.864
 2073SOL    HW211067   1.018   2.764   5.980
 2074SOL     OW11068   1.556   3.450   5.586
 2074SOL    HW111069   1.482   3.468   5.644
 2074SOL    HW211070   1.528   3.485   5.501
 2075SOL     OW11071   1.113   2.978   6.195
 2075SOL    HW111072   1.041   3.009   6.251
 2075SOL    HW211073   1.069   2.944   6.117
 2076SOL     OW11074   1.045   2.098   6.547
 2076SOL    HW111075   1.036   2.051   6.465
 2076SOL    HW211076   1.055   2.030   6.613
 2077SOL     OW11077   0.575   3.352   6.086
 2077SOL    HW111078   0.626   3.315   6.014
 2077SOL    HW211079   0.484   3.333   6.064
 2078SOL     OW11080   1.749   2.365   6.946
 2078SOL    HW111081   1.757   2.350   7.040
 2078SOL    HW211082   1.769   2.280   6.906
 2079SOL     OW11083   0.301   3.173   5.893
 2079SOL    HW111084   0.220   3.122   5.890
 2079SOL    HW211085   0.301   3.215   5.979
 2080SOL     OW11086   0.082   2.947   7.253
 2080SOL    HW111087   0.084   2.853   7.270
 2080SOL    HW211088   0.159   2.964   7.199
 2081SOL     OW11089   0.660   2.064   7.093
 2081SOL    HW111090   0.741   2.043   7.047
 2081SOL    HW211091   0.688   2.088   7.181
 2082SOL     OW11092   0.088   2.171   5.516
 2082SOL    HW111093   0.022   2.126   5.463
 2082SOL    HW211094   0.106   2.251   5.467
 2083SOL     OW11095   1.402   2.738   6.974
 2083SOL    HW111096   1.338   2.756   6.906
 2083SOL    HW211097   1.487   2.751   6.932
 2084SOL     OW11098   0.057   1.958   5.824
 2084SOL    HW111099   0.074   2.051   5.836
 2084SOL    HW211100   0.143   1.921   5.804
 2085SOL     OW11101   1.256   3.248   5.647
 2085SOL    HW111102   1.175   3.236   5.696
 2085SOL    HW211103   1.289   3.334   5.675
 2086SOL     OW11104   1.531   3.640   6.567
 2086SOL    HW111105   1.455   3.599   6.525
 2086SOL    HW211106   1.530   3.730   6.537
 2087SOL     OW11107   0.717   2.383   7.318
 2087SOL    HW111108   0.637   2.382   7.370
 2087SOL    HW211109   0.751   2.294   7.324
 2088SOL     OW11110   1.490   3.059   7.236
 2088SOL    HW111111   1.459   3.078   7.325
 2088SOL    HW211112   1.584   3.077   7.240
 2089SOL     OW11113   0.367   3.621   7.169
 2089SOL    HW111114   0.292   3.661   7.126
 2089SOL    HW211115   0.329   3.561   7.233
 2090SOL     OW11116   1.649   2.791   6.842
 2090SOL    HW111117   1.655   2.701   6.811
 2090SOL    HW211118   1.645   2.844   6.762
 2091SOL     OW11119   0.540   2.653   6.304
 2091SOL    HW111120   0.608   2.711   6.269
 2091SOL    HW211121   0.489   2.626   6.228
 2092SOL     OW11122   1.772   2.849   7.081
 2092SOL    HW111123   1.738   2.782   7.140
 2092SOL    HW211124   1.736   2.827   6.996
 2093SOL     OW11125   0.856   3.274   5.685
 2093SOL    HW111126   0.831   3.250   5.774
 2093SOL    HW211127   0.834   3.368   5.679
 2094SOL     OW11128   0.682   3.634   6.489
 2094SOL    HW111129   0.671   3.729   6.495
 2094SOL    HW211130   0.776   3.620   6.502
 2095SOL     OW11131   0.811   2.822   6.486
 2095SOL    HW111132   0.901   2.789   6.488
 2095SOL    HW211133   0.820   2.917   6.493
 2096SOL     OW11134   1.161   2.820   5.701
 2096SOL    HW111135   1.110   2.857   5.629
 2096SOL    HW211136   1.216   2.753   5.660
 2097SOL     OW11137   1.781   3.435   6.445
 2097SOL    HW111138   1.702   3.437   6.390
 2097SOL    HW211139   1.759   3.374   6.516
 2098SOL     OW11140   0.189   3.159   7.397
 2098SOL    HW111141   0.150   3.090   7.343
 2098SOL    HW211142   0.157   3.240   7.358
 2099SOL     OW11143   0.116   3.131   6.271
 2099SOL    HW111144   0.098   3.108   6.362
 2099SOL    HW211145   0.105   3.048   6.224
 2100SOL     OW11146   0.677   3.257   7.204
 2100SOL    HW111147   0.595   3.222   7.237
 2100SOL    HW211148   0.682   3.346   7.239
 2101SOL     OW11149   1.891   2.061   6.807
 2101SOL    HW111150   1.893   2.088   6.899
 2101SOL    HW211151   1.839   1.980   6.806
 2102SOL     OW11152   0.444   2.304   6.166
 2102SOL    HW111153   0.474   2.244   6.099
 2102SOL    HW211154   0.384   2.252   6.220
 2103SOL     OW11155   1.665   3.276   6.656
 2103SOL    HW111156   1.575   3.292   6.626
 2103SOL    HW211157   1.670   3.181   6.666
 2104SOL     OW11158   0.331   2.422   6.872
 2104SOL    HW111159   0.386   2.366   6.926
 2104SOL    HW211160   0.375   2.423   6.787
 2105SOL     OW11161   1.444   2.097   6.675
 2105SOL    HW111162   1.443   2.003   6.695
 2105SOL    HW211163   1.393   2.137   6.747
 2106SOL     OW11164   1.077   1.894   6.736
 2106SOL    HW111165   1.024   1.818   6.712
 2106SOL    HW211166   1.094   1.882   6.830
 2107SOL     OW11167   0.791   3.227   5.950
 2107SOL    HW111168   0.783   3.132   5.956
 2107SOL    HW211169   0.856   3.251   6.016
 2108SOL     OW11170   0.573   3.442   6.866
 2108SOL    HW111171   0.583   3.529   6.905
 2108SOL    HW211172   0.663   3.412   6.852
 2109SOL     OW11173   1.393   1.900   5.749
 2109SOL    HW111174   1.428   1.830   5.694
 2109SOL    HW211175   1.305   1.870   5.772
 2110SOL     OW11176   1.385   2.321   6.258
 2110SOL    HW111177   1.313   2.327   6.195
 2110SOL    HW211178   1.345   2.290   6.339
 2111SOL     OW11179   1.662   2.125   6.498
 2111SOL    HW111180   1.587   2.115   6.556
 2111SOL    HW211181   1.642   2.202   6.445
 2112SOL     OW11182   0.071   3.026   5.886
 2112SOL    HW111183   0.123   2.949   5.863
 2112SOL    HW211184   9.982   3.003   5.859
 2113SOL     OW11185   0.876   3.523   5.939
 2113SOL    HW111186   0.797   3.512   5.885
 2113SOL    HW211187   0.876   3.447   5.997
 2114SOL     OW11188   0.265   2.397   7.551
 2114SOL    HW111189   0.226   2.482   7.572
 2114SOL    HW211190   0.253   2.388   7.457
 2115SOL     OW11191   0.151   2.116   8.467
 2115SOL    HW111192   0.200   2.087   8.543
 2115SOL    HW211193   0.082   2.051   8.456
 2116SOL     OW11194   0.045   2.276   8.078
 2116SOL    HW111195   9.974   2.340   8.074
 2116SOL    HW211196   0.004   2.194   8.048
 2117SOL     OW11197   1.583   3.372   8.150
 2117SOL    HW111198   1.557   3.321   8.228
 2117SOL    HW211199   1.506   3.426   8.131
 2118SOL     OW11200   1.131   2.555   8.133
 2118SOL    HW111201   1.173   2.639   8.118
 2118SOL    HW211202   1.083   2.566   8.216
 2119SOL     OW11203   1.725   2.439   7.707
 2119SOL    HW111204   1.729   2.424   7.612
 2119SOL    HW211205   1.682   2.361   7.742
 2120SOL     OW11206   0.695   3.012   8.554
 2120SOL    HW111207   0.644   3.055   8.622
 2120SOL    HW211208   0.731   3.083   8.501
 2121SOL     OW11209   0.909   2.611   9.253
 2121SOL    HW111210   0.922   2.670   9.328
 2121SOL    HW211211   0.919   2.668   9.177
 2122SOL     OW11212   0.698   2.850   8.117
 2122SOL    HW111213   0.768   2.855   8.183
 2122SOL    HW211214   0.630   2.909   8.150
 2123SOL     OW11215   0.606   3.093   9.274
 2123SOL    HW111216   0.691   3.104   9.317
 2123SOL    HW211217   0.610   3.152   9.199
 2124SOL     OW11218   1.461   3.353   8.829
 2124SOL    HW111219   1.385   3.412   8.834
 2124SOL    HW211220   1.487   3.340   8.920
 2125SOL     OW11221   0.496   2.221   8.873
 2125SOL    HW111222   0.573   2.168   8.895
 2125SOL    HW211223   0.421   2.167   8.899
 2126SOL     OW11224   1.580   2.302   8.212
 2126SOL    HW111225   1.501   2.292   8.158
 2126SOL    HW211226   1.555   2.365   8.279
 2127SOL     OW11227   0.186   3.377   8.017
 2127SOL    HW111228   0.099   3.377   7.977
 2127SOL    HW211229   0.188   3.297   8.070
 2128SOL     OW11230   0.628   2.843   7.599
 2128SOL    HW111231   0.667   2.903   7.535
 2128SOL    HW211232   0.648   2.882   7.684
 2129SOL     OW11233   1.579   2.033   8.892
 2129SOL    HW111234   1.651   2.082   8.851
 2129SOL    HW211235   1.557   2.084   8.970
 2130SOL     OW11236   0.221   2.483   8.161
 2130SOL    HW111237   0.164   2.418   8.120
 2130SOL    HW211238   0.162   2.553   8.188
 2131SOL     OW11239   1.903   3.596   7.828
 2131SOL    HW111240   1.831   3.597   7.891
 2131SOL    HW211241   1.892   3.676   7.777
 2132SOL     OW11242   1.748   2.817   8.013
 2132SOL    HW111243   1.802   2.786   8.086
 2132SOL    HW211244   1.719   2.737   7.969
 2133SOL     OW11245   0.167   2.617   9.007
 2133SOL    HW111246   0.258   2.635   9.031
 2133SOL    HW211247   0.120   2.615   9.090
 2134SOL     OW11248   0.646   3.250   8.172
 2134SOL    HW111249   0.578   3.187   8.195
 2134SOL    HW211250   0.672   3.226   8.083
 2135SOL     OW11251   1.220   3.184   8.932
 2135SOL    HW111252   1.245   3.094   8.912
 2135SOL    HW211253   1.271   3.207   9.009
 2136SOL     OW11254   0.832   1.864   7.962
 2136SOL    HW111255   0.866   1.947   7.928
 2136SOL    HW211256   0.737   1.874   7.961
 2137SOL     OW11257   0.191   2.853   8.677
 2137SOL    HW111258   0.267   2.795   8.678
 2137SOL    HW211259   0.205   2.909   8.600
 2138SOL     OW11260   1.584   2.811   7.720
 2138SOL    HW111261   1.518   2.787   7.654
 2138SOL    HW211262   1.600   2.730   7.768
 2139SOL     OW11263   1.211   3.689   9.098
 2139SOL    HW111264   1.261   3.745   9.038
 2139SOL    HW211265   1.205   3.605   9.053
 2140SOL     OW11266   0.275   2.123   9.224
 2140SOL    HW111267   0.300   2.080   9.306
 2140SOL    HW211268   0.180   2.135   9.233
 2141SOL     OW11269   1.485   3.249   8.373
 2141SOL    HW111270   1.408   3.298   8.403
 2141SOL    HW211271   1.460   3.157   8.383
 2142SOL     OW11272   1.684   3.626   7.985
 2142SOL    HW111273   1.633   3.603   7.907
 2142SOL    HW211274   1.646   3.573   8.055
 2143SOL     OW11275   0.611   2.586   7.716
 2143SOL    HW111276   0.610   2.672   7.674
 2143SOL    HW211277   0.539   2.588   7.779
 2144SOL     OW11278   1.275   2.246   8.379
 2144SOL    HW111279   1.187   2.212   8.389
 2144SOL    HW211280   1.329   2.192   8.437
 2145SOL     OW11281   1.568   3.545   7.751
 2145SOL    HW111282   1.554   3.542   7.657
 2145SOL    HW211283   1.489   3.505   7.789
 2146SOL     OW11284   0.786   2.471   8.849
 2146SOL    HW111285   0.767   2.438   8.937
 2146SOL    HW211286   0.755   2.402   8.791
 2147SOL     OW11287   1.408   2.345   9.115
 2147SOL    HW111288   1.407   2.395   9.196
 2147SOL    HW211289   1.466   2.271   9.133
 2148SOL     OW11290   0.956   2.782   9.033
 2148SOL    HW111291   1.006   2.713   8.989
 2148SOL    HW211292   0.903   2.821   8.965
 2149SOL     OW11293   0.995   2.263   8.630
 2149SOL    HW111294   0.903   2.284   8.645
 2149SOL    HW211295   0.996   2.214   8.548
 2150SOL     OW11296   1.054   2.578   7.867
 2150SOL    HW111297   1.067   2.563   7.960
 2150SOL    HW211298   0.972   2.534   7.847
 2151SOL     OW11299   0.068   2.681   8.288
 2151SOL    HW111300   0.152   2.690   8.332
 2151SOL    HW211301   0.003   2.706   8.354
 2152SOL     OW11302   0.121   3.726   9.127
 2152SOL    HW111303   0.084   3.686   9.206
 2152SOL    HW211304   0.124   3.654   9.064
 2153SOL     OW11305   0.861   2.212   7.640
 2153SOL    HW111306   0.913   2.246   7.568
 2153SOL    HW211307   0.801   2.149   7.599
 2154SOL     OW11308   1.707   2.441   9.295
 2154SOL    HW111309   1.678   2.522   9.253
 2154SOL    HW211310   1.735   2.385   9.223
 2155SOL     OW11311   1.363   2.974   7.881
 2155SOL    HW111312   1.320   2.907   7.828
 2155SOL    HW211313   1.305   3.051   7.875
 2156SOL     OW11314   0.596   2.013   8.342
 2156SOL    HW111315   0.580   2.041   8.432
 2156SOL    HW211316   0.514   2.029   8.297
 2157SOL     OW11317   0.985   3.345   7.919
 2157SOL    HW111318   0.953   3.415   7.861
 2157SOL    HW211319   0.954   3.371   8.005
 2158SOL     OW11320   0.318   3.636   8.406
 2158SOL    HW111321   0.368   3.564   8.368
 2158SOL    HW211322   0.377   3.711   8.403
 2159SOL     OW11323   1.707   2.963   8.336
 2159SOL    HW111324   1.619   2.961   8.300
 2159SOL    HW211325   1.695   2.958   8.431
 2160SOL     OW11326   1.222   3.473   8.926
 2160SOL    HW111327   1.192   3.383   8.917
 2160SOL    HW211328   1.186   3.518   8.849
 2161SOL     OW11329   0.260   2.815   7.747
 2161SOL    HW111330   0.302   2.825   7.662
 2161SOL    HW211331   0.227   2.726   7.748
 2162SOL     OW11332   1.452   2.567   8.126
 2162SOL    HW111333   1.396   2.492   8.107
 2162SOL    HW211334   1.463   2.566   8.221
 2163SOL     OW11335   0.331   3.177   9.105
 2163SOL    HW111336   0.378   3.204   9.026
 2163SOL    HW211337   0.354   3.085   9.116
 2164SOL     OW11338   1.147   3.599   7.727
 2164SOL    HW111339   1.054   3.596   7.747
 2164SOL    HW211340   1.156   3.548   7.646
 2165SOL     OW11341   0.224   2.134   8.948
 2165SOL    HW111342   0.205   2.225   8.925
 2165SOL    HW211343   0.243   2.136   9.041
 2166SOL     OW11344   1.643   3.251   7.560
 2166SOL    HW111345   1.593   3.331   7.544
 2166SOL    HW211346   1.579   3.181   7.547
 2167SOL     OW11347   1.387   1.969   7.867
 2167SOL    HW111348   1.380   1.941   7.776
 2167SOL    HW211349   1.465   1.924   7.900
 2168SOL     OW11350   0.183   3.640   8.647
 2168SOL    HW111351   0.242   3.600   8.712
 2168SOL    HW211352   0.227   3.625   8.564
 2169SOL     OW11353   0.408   2.536   7.900
 2169SOL    HW111354   0.418   2.458   7.955
 2169SOL    HW211355   0.316   2.536   7.874
 2170SOL     OW11356   1.568   2.119   9.183
 2170SOL    HW111357   1.558   2.136   9.277
 2170SOL    HW211358   1.555   2.025   9.174
 2171SOL     OW11359   0.691   1.966   7.556
 2171SOL    HW111360   0.733   1.880   7.561
 2171SOL    HW211361   0.609   1.949   7.509
 2172SOL     OW11362   0.771   2.139   9.210
 2172SOL    HW111363   0.855   2.093   9.207
 2172SOL    HW211364   0.719   2.089   9.273
 2173SOL     OW11365   1.311   2.451   8.876
 2173SOL    HW111366   1.350   2.421   8.958
 2173SOL    HW211367   1.359   2.531   8.855
 2174SOL     OW11368   0.801   3.224   8.398
 2174SOL    HW111369   0.890   3.200   8.370
 2174SOL    HW211370   0.750   3.222   8.317
 2175SOL     OW11371   0.897   2.378   8.317
 2175SOL    HW111372   0.888   2.364   8.223
 2175SOL    HW211373   0.924   2.294   8.352
 2176SOL     OW11374   0.560   1.885   7.941
 2176SOL    HW111375   0.491   1.877   8.007
 2176SOL    HW211376   0.541   1.967   7.896
 2177SOL     OW11377   1.420   3.078   7.510
 2177SOL    HW111378   1.407   2.984   7.524
 2177SOL    HW211379   1.334   3.116   7.527
 2178SOL     OW11380   0.947   2.103   7.880
 2178SOL    HW111381   0.915   2.135   7.796
 2178SOL    HW211382   1.041   2.121   7.878
 2179SOL     OW11383   1.055   2.572   8.883
 2179SOL    HW111384   0.981   2.512   8.882
 2179SOL    HW211385   1.132   2.515   8.882
 2180SOL     OW11386   1.357   3.530   8.137
 2180SOL    HW111387   1.308   3.607   8.109
 2180SOL    HW211388   1.340   3.523   8.231
 2181SOL     OW11389   0.488   3.015   8.184
 2181SOL    HW111390   0.434   3.061   8.248
 2181SOL    HW211391   0.429   2.997   8.111
 2182SOL     OW11392   1.204   3.739   8.047
 2182SOL    HW111393   1.166   3.782   7.971
 2182SOL    HW211394   1.132   3.731   8.109
 2183SOL     OW11395   1.036   2.371   7.481
 2183SOL    HW111396   0.996   2.456   7.468
 2183SOL    HW211397   1.091   2.381   7.559
 2184SOL     OW11398   0.171   2.385   8.861
 2184SOL    HW111399   0.243   2.403   8.801
 2184SOL    HW211400   0.152   2.469   8.903
 2185SOL     OW11401   0.556   2.063   8.614
 2185SOL    HW111402   0.588   1.987   8.661
 2185SOL    HW211403   0.464   2.070   8.640
 2186SOL     OW11404   0.884   2.317   8.051
 2186SOL    HW111405   0.851   2.370   7.979
 2186SOL    HW211406   0.900   2.231   8.012
 2187SOL     OW11407   1.024   1.927   8.174
 2187SOL    HW111408   0.959   1.918   8.104
 2187SOL    HW211409   1.005   1.854   8.233
 2188SOL     OW11410   1.423   2.959   8.302
 2188SOL    HW111411   1.397   2.879   8.349
 2188SOL    HW211412   1.341   2.989   8.262
 2189SOL     OW11413   1.440   2.477   8.394
 2189SOL    HW111414   1.377   2.407   8.409
 2189SOL    HW211415   1.494   2.478   8.473
 2190SOL     OW11416   1.900   2.639   7.791
 2190SOL    HW111417   1.938   2.595   7.867
 2190SOL    HW211418   1.841   2.575   7.753
 2191SOL     OW11419   1.673   3.144   8.002
 2191SOL    HW111420   1.750   3.124   8.056
 2191SOL    HW211421   1.637   3.223   8.041
 2192SOL     OW11422   1.398   2.439   7.533
 2192SOL    HW111423   1.321   2.438   7.589
 2192SOL    HW211424   1.435   2.351   7.542
 2193SOL     OW11425   0.546   2.099   7.761
 2193SOL    HW111426   0.591   2.046   7.696
 2193SOL    HW211427   0.538   2.186   7.720
 2194SOL     OW11428   1.684   3.106   9.037
 2194SOL    HW111429   1.720   3.073   9.118
 2194SOL    HW211430   1.630   3.181   9.063
 2195SOL     OW11431   1.010   3.173   8.752
 2195SOL    HW111432   0.930   3.166   8.804
 2195SOL    HW211433   1.081   3.180   8.816
 2196SOL     OW11434   1.584   3.636   8.996
 2196SOL    HW111435   1.562   3.543   8.992
 2196SOL    HW211436   1.576   3.658   9.089
 2197SOL     OW11437   1.084   2.998   8.550
 2197SOL    HW111438   1.064   3.051   8.627
 2197SOL    HW211439   1.078   3.060   8.477
 2198SOL     OW11440   1.632   2.959   8.600
 2198SOL    HW111441   1.644   3.035   8.656
 2198SOL    HW211442   1.538   2.939   8.607
 2199SOL     OW11443   0.936   1.928   8.820
 2199SOL    HW111444   0.952   1.926   8.726
 2199SOL    HW211445   1.014   1.970   8.857
 2200SOL     OW11446   0.987   3.040   9.158
 2200SOL    HW111447   0.937   3.034   9.239
 2200SOL    HW211448   0.986   2.951   9.122
 2201SOL     OW11449   0.716   2.929   7.850
 2201SOL    HW111450   0.701   2.892   7.938
 2201SOL    HW211451   0.802   2.896   7.824
 2202SOL     OW11452   0.420   2.687   8.674
 2202SOL    HW111453   0.479   2.707   8.746
 2202SOL    HW211454   0.402   2.593   8.683
 2203SOL     OW11455   1.251   2.227   8.726
 2203SOL    HW111456   1.274   2.306   8.775
 2203SOL    HW211457   1.162   2.243   8.694
 2204SOL     OW11458   0.321   2.993   7.960
 2204SOL    HW111459   0.342   3.062   7.897
 2204SOL    HW211460   0.298   2.917   7.907
 2205SOL     OW11461   1.215   3.208   7.838
 2205SOL    HW111462   1.271   3.285   7.848
 2205SOL    HW211463   1.131   3.235   7.874
 2206SOL     OW11464   1.346   3.180   8.632
 2206SOL    HW111465   1.374   3.233   8.707
 2206SOL    HW211466   1.302   3.243   8.574
 2207SOL     OW11467   1.612   2.610   7.903
 2207SOL    HW111468   1.557   2.577   7.974
 2207SOL    HW211469   1.634   2.532   7.852
 2208SOL     OW11470   0.439   2.654   9.069
 2208SOL    HW111471   0.501   2.667   8.998
 2208SOL    HW211472   0.470   2.576   9.115
 2209SOL     OW11473   1.628   2.670   9.163
 2209SOL    HW111474   1.532   2.676   9.162
 2209SOL    HW211475   1.655   2.707   9.079
 2210SOL     OW11476   1.004   2.001   9.193
 2210SOL    HW111477   1.065   2.073   9.178
 2210SOL    HW211478   1.054   1.922   9.172
 2211SOL     OW11479   0.489   1.927   9.177
 2211SOL    HW111480   0.448   1.860   9.122
 2211SOL    HW211481   0.428   2.000   9.177
 2212SOL     OW11482   0.639   2.737   8.503
 2212SOL    HW111483   0.660   2.829   8.512
 2212SOL    HW211484   0.567   2.722   8.565
 2213SOL     OW11485   1.300   2.725   8.407
 2213SOL    HW111486   1.206   2.705   8.405
 2213SOL    HW211487   1.343   2.640   8.413
 2214SOL     OW11488   1.191   2.396   7.709
 2214SOL    HW111489   1.199   2.316   7.761
 2214SOL    HW211490   1.146   2.458   7.767
 2215SOL     OW11491   0.289   2.041   8.694
 2215SOL    HW111492   0.257   2.063   8.782
 2215SOL    HW211493   0.275   1.947   8.687
 2216SOL     OW11494   0.636   2.473   8.397
 2216SOL    HW111495   0.722   2.447   8.364
 2216SOL    HW211496   0.648   2.564   8.425
 2217SOL     OW11497   1.743   2.899   9.282
 2217SOL    HW111498   1.703   2.816   9.254
 2217SOL    HW211499   1.703   2.918   9.367
 2218SOL     OW11500   0.334   1.890   8.114
 2218SOL    HW111501   0.311   1.971   8.070
 2218SOL    HW211502   0.265   1.828   8.088
 2219SOL     OW11503   1.585   2.231   7.827
 2219SOL    HW111504   1.649   2.177   7.874
 2219SOL    HW211505   1.500   2.202   7.862
 2220SOL     OW11506   1.025   2.615   8.388
 2220SOL    HW111507   1.006   2.636   8.479
 2220SOL    HW211508   0.979   2.532   8.372
 2221SOL     OW11509   1.056   3.301   9.213
 2221SOL    HW111510   0.990   3.353   9.168
 2221SOL    HW211511   1.043   3.212   9.180
 2222SOL     OW11512   1.808   3.412   9.100
 2222SOL    HW111513   1.719   3.381   9.086
 2222SOL    HW211514   1.804   3.462   9.182
 2223SOL     OW11515   0.395   2.911   9.176
 2223SOL    HW111516   0.472   2.946   9.221
 2223SOL    HW211517   0.422   2.824   9.146
 2224SOL     OW11518   1.481   2.178   7.574
 2224SOL    HW111519   1.437   2.093   7.582
 2224SOL    HW211520   1.532   2.185   7.655
 2225SOL     OW11521   1.437   2.719   7.509
 2225SOL    HW111522   1.421   2.625   7.519
 2225SOL    HW211523   1.405   2.739   7.421
 2226SOL     OW11524   1.066   3.193   8.347
 2226SOL    HW111525   1.108   3.131   8.287
 2226SOL    HW211526   1.137   3.248   8.379
 2227SOL     OW11527   0.339   2.675   8.394
 2227SOL    HW111528   0.391   2.742   8.350
 2227SOL    HW211529   0.361   2.684   8.486
 2228SOL     OW11530   0.322   2.359   8.446
 2228SOL    HW111531   0.297   2.273   8.413
 2228SOL    HW211532   0.239   2.400   8.472
 2229SOL     OW11533   1.156   2.225   9.125
 2229SOL    HW111534   1.107   2.277   9.189
 2229SOL    HW211535   1.241   2.269   9.119
 2230SOL     OW11536   1.169   2.042   8.917
 2230SOL    HW111537   1.159   2.106   8.988
 2230SOL    HW211538   1.211   2.091   8.846
 2231SOL     OW11539   0.058   3.641   8.293
 2231SOL    HW111540   0.080   3.674   8.206
 2231SOL    HW211541   0.142   3.640   8.340
 2232SOL     OW11542   0.451   3.435   8.267
 2232SOL    HW111543   0.536   3.400   8.242
 2232SOL    HW211544   0.399   3.359   8.292
 2233SOL     OW11545   0.945   2.658   8.642
 2233SOL    HW111546   0.999   2.646   8.720
 2233SOL    HW211547   0.857   2.634   8.670
 2234SOL     OW11548   0.061   2.374   8.545
 2234SOL    HW111549   0.074   2.280   8.530
 2234SOL    HW211550   0.033   2.380   8.636
 2235SOL     OW11551   0.273   2.412   9.226
 2235SOL    HW111552   0.301   2.321   9.236
 2235SOL    HW211553   0.220   2.412   9.146
 2236SOL     OW11554   1.361   2.729   9.111
 2236SOL    HW111555   1.377   2.822   9.092
 2236SOL    HW211556   1.332   2.693   9.027
 2237SOL     OW11557   0.828   2.437   7.805
 2237SOL    HW111558   0.828   2.361   7.747
 2237SOL    HW211559   0.752   2.489   7.776
 2238SOL     OW11560   1.623   2.469   8.601
 2238SOL    HW111561   1.615   2.405   8.672
 2238SOL    HW211562   1.709   2.451   8.562
 2239SOL     OW11563   0.272   3.423   9.212
 2239SOL    HW111564   0.337   3.419   9.282
 2239SOL    HW211565   0.293   3.348   9.156
 2240SOL     OW11566   0.714   2.302   8.630
 2240SOL    HW111567   0.663   2.221   8.634
 2240SOL    HW211568   0.675   2.352   8.559
 2241SOL     OW11569   0.523   2.338   7.630
 2241SOL    HW111570   0.556   2.424   7.655
 2241SOL    HW211571   0.432   2.353   7.604
 2242SOL     OW11572   0.147   3.011   8.908
 2242SOL    HW111573   0.126   2.968   8.991
 2242SOL    HW211574   0.150   2.940   8.844
 2243SOL     OW11575   1.367   2.897   8.632
 2243SOL    HW111576   1.311   2.852   8.569
 2243SOL    HW211577   1.332   2.986   8.636
 2244SOL     OW11578   1.255   2.757   7.763
 2244SOL    HW111579   1.198   2.690   7.800
 2244SOL    HW211580   1.221   2.770   7.674
 2245SOL     OW11581   1.771   3.571   8.576
 2245SOL    HW111582   1.699   3.606   8.523
 2245SOL    HW211583   1.761   3.476   8.569
 2246SOL     OW11584   0.021   3.151   8.533
 2246SOL    HW111585   0.101   3.104   8.507
 2246SOL    HW211586   9.983   3.180   8.450
 2247SOL     OW11587   1.765   2.070   7.957
 2247SOL    HW111588   1.826   2.048   7.887
 2247SOL    HW211589   1.719   1.988   7.976
 2248SOL     OW11590   1.337   3.456   7.871
 2248SOL    HW111591   1.266   3.509   7.835
 2248SOL    HW211592   1.333   3.472   7.965
 2249SOL     OW11593   0.056   3.632   9.374
 2249SOL    HW111594   0.021   3.562   9.430
 2249SOL    HW211595   0.138   3.657   9.416
 2250SOL     OW11596   1.278   2.777   8.075
 2250SOL    HW111597   1.352   2.719   8.090
 2250SOL    HW211598   1.303   2.829   7.999
 2251SOL     OW11599   0.778   3.146   8.896
 2251SOL    HW111600   0.755   3.189   8.978
 2251SOL    HW211601   0.700   3.157   8.841
 2252SOL     OW11602   0.711   3.468   7.584
 2252SOL    HW111603   0.706   3.489   7.491
 2252SOL    HW211604   0.620   3.461   7.612
 2253SOL     OW11605   1.795   3.679   8.826
 2253SOL    HW111606   1.766   3.644   8.742
 2253SOL    HW211607   1.720   3.665   8.885
 2254SOL     OW11608   1.911   2.053   8.356
 2254SOL    HW111609   1.926   1.959   8.342
 2254SOL    HW211610   1.816   2.062   8.360
 2255SOL     OW11611   0.264   2.181   8.219
 2255SOL    HW111612   0.193   2.207   8.160
 2255SOL    HW211613   0.220   2.136   8.292
 2256SOL     OW11614   1.224   3.456   7.498
 2256SOL    HW111615   1.212   3.365   7.526
 2256SOL    HW211616   1.163   3.467   7.425
 2257SOL     OW11617   0.815   2.885   8.819
 2257SOL    HW111618   0.847   2.893   8.729
 2257SOL    HW211619   0.804   2.975   8.849
 2258SOL     OW11620   0.957   2.830   7.778
 2258SOL    HW111621   1.003   2.839   7.695
 2258SOL    HW211622   0.986   2.746   7.813
 2259SOL     OW11623   1.501   3.481   7.489
 2259SOL    HW111624   1.405   3.478   7.489
 2259SOL    HW211625   1.524   3.491   7.397
 2260SOL     OW11626   1.666   3.182   8.764
 2260SOL    HW111627   1.687   3.152   8.852
 2260SOL    HW211628   1.592   3.241   8.775
 2261SOL     OW11629   1.144   2.970   8.214
 2261SOL    HW111630   1.060   2.938   8.245
 2261SOL    HW211631   1.181   2.898   8.163
 2262SOL     OW11632   1.025   2.114   8.391
 2262SOL    HW111633   1.022   2.072   8.305
 2262SOL    HW211634   1.020   2.042   8.454
 2263SOL     OW11635   0.587   3.434   7.906
 2263SOL    HW111636   0.631   3.349   7.905
 2263SOL    HW211637   0.546   3.441   7.820
 2264SOL     OW11638   1.789   2.231   8.817
 2264SOL    HW111639   1.848   2.297   8.783
 2264SOL    HW211640   1.838   2.149   8.813
 2265SOL     OW11641   0.118   2.884   9.177
 2265SOL    HW111642   0.096   2.792   9.188
 2265SOL    HW211643   0.214   2.887   9.181
 2266SOL     OW11644   0.705   2.044   8.944
 2266SOL    HW111645   0.787   2.012   8.907
 2266SOL    HW211646   0.728   2.077   9.031
 2267SOL     OW11647   0.037   2.123   7.361
 2267SOL    HW111648   0.050   2.078   7.445
 2267SOL    HW211649   9.944   2.147   7.361
 2268SOL     OW11650   1.434   2.699   8.828
 2268SOL    HW111651   1.400   2.763   8.766
 2268SOL    HW211652   1.509   2.743   8.869
 2269SOL     OW11653   1.161   3.190   7.567
 2269SOL    HW111654   1.067   3.201   7.556
 2269SOL    HW211655   1.174   3.183   7.662
 2270SOL     OW11656   0.622   2.694   8.863
 2270SOL    HW111657   0.683   2.767   8.855
 2270SOL    HW211658   0.677   2.616   8.862
 2271SOL     OW11659   1.553   3.638   8.420
 2271SOL    HW111660   1.545   3.726   8.384
 2271SOL    HW211661   1.464   3.603   8.418
 2272SOL     OW11662   0.749   2.409   9.114
 2272SOL    HW111663   0.794   2.466   9.176
 2272SOL    HW211664   0.752   2.322   9.155
 2273SOL     OW11665   1.433   2.979   9.033
 2273SOL    HW111666   1.406   3.057   9.080
 2273SOL    HW211667   1.526   2.993   9.014
 2274SOL     OW11668   0.362   3.537   8.824
 2274SOL    HW111669   0.417   3.612   8.848
 2274SOL    HW211670   0.409   3.461   8.857
 2275SOL     OW11671   1.755   2.720   8.669
 2275SOL    HW111672   1.699   2.646   8.647
 2275SOL    HW211673   1.708   2.797   8.636
 2276SOL     OW11674   1.219   2.186   7.890
 2276SOL    HW111675   1.270   2.105   7.881
 2276SOL    HW211676   1.245   2.222   7.975
 2277SOL     OW11677   0.522   2.634   8.136
 2277SOL    HW111678   0.590   2.702   8.124
 2277SOL    HW211679   0.485   2.622   8.049
 2278SOL     OW11680   1.789   2.270   9.088
 2278SOL    HW111681   1.775   2.256   8.994
 2278SOL    HW211682   1.729   2.208   9.130
 2279SOL     OW11683   1.694   2.804   8.930
 2279SOL    HW111684   1.736   2.888   8.950
 2279SOL    HW211685   1.733   2.777   8.846
 2280SOL     OW11686   0.897   3.270   7.519
 2280SOL    HW111687   0.829   3.327   7.557
 2280SOL    HW211688   0.927   3.317   7.441
 2281SOL     OW11689   0.900   2.863   8.318
 2281SOL    HW111690   0.935   2.777   8.341
 2281SOL    HW211691   0.868   2.899   8.401
 2282SOL     OW11692   1.100   2.817   7.537
 2282SOL    HW111693   1.076   2.883   7.472
 2282SOL    HW211694   1.052   2.739   7.511
 2283SOL     OW11695   1.826   3.417   8.284
 2283SOL    HW111696   1.743   3.415   8.237
 2283SOL    HW211697   1.806   3.380   8.370
 2284SOL     OW11698   0.140   3.176   9.313
 2284SOL    HW111699   0.199   3.186   9.238
 2284SOL    HW211700   0.195   3.194   9.389
 2285SOL     OW11701   0.164   3.136   8.153
 2285SOL    HW111702   0.227   3.144   8.225
 2285SOL    HW211703   0.202   3.069   8.096
 2286SOL     OW11704   0.644   3.302   9.089
 2286SOL    HW111705   0.572   3.313   9.027
 2286SOL    HW211706   0.654   3.388   9.129
 2287SOL     OW11707   0.464   2.314   8.076
 2287SOL    HW111708   0.515   2.260   8.016
 2287SOL    HW211709   0.391   2.258   8.103
 2288SOL     OW11710   1.720   3.302   8.516
 2288SOL    HW111711   1.635   3.287   8.475
 2288SOL    HW211712   1.715   3.257   8.600
 2289SOL     OW11713   0.398   2.418   8.708
 2289SOL    HW111714   0.445   2.352   8.760
 2289SOL    HW211715   0.392   2.380   8.620
 2290SOL     OW11716   0.812   3.474   8.114
 2290SOL    HW111717   0.763   3.510   8.040
 2290SOL    HW211718   0.760   3.399   8.144
 2291SOL     OW11719   1.431   2.104   8.554
 2291SOL    HW111720   1.444   2.011   8.574
 2291SOL    HW211721   1.380   2.137   8.628
 2292SOL     OW11722   1.020   1.884   8.549
 2292SOL    HW111723   0.977   1.818   8.494
 2292SOL    HW211724   1.109   1.851   8.560
 2293SOL     OW11725   0.733   3.196   7.919
 2293SOL    HW111726   0.715   3.108   7.886
 2293SOL    HW211727   0.823   3.215   7.892
 2294SOL     OW11728   0.687   3.428   8.760
 2294SOL    HW111729   0.684   3.465   8.849
 2294SOL    HW211730   0.634   3.349   8.766
 2295SOL     OW11731   1.356   1.933   7.588
 2295SOL    HW111732   1.376   1.911   7.496
 2295SOL    HW211733   1.282   1.876   7.610
 2296SOL     OW11734   1.297   2.333   8.121
 2296SOL    HW111735   1.224   2.395   8.115
 2296SOL    HW211736   1.287   2.293   8.207
 2297SOL     OW11737   1.637   2.076   8.366
 2297SOL    HW111738   1.572   2.090   8.435
 2297SOL    HW211739   1.617   2.143   8.300
 2298SOL     OW11740   0.038   2.989   7.719
 2298SOL    HW111741   0.060   3.004   7.627
 2298SOL    HW211742   0.103   2.926   7.749
 2299SOL     OW11743   0.879   3.566   7.785
 2299SOL    HW111744   0.817   3.538   7.718
 2299SOL    HW211745   0.837   3.639   7.829
 2300SOL     OW11746   0.254   2.601   9.426
 2300SOL    HW111747   0.197   2.559   9.490
 2300SOL    HW211748   0.269   2.535   9.359
 2301SOL     OW11749   1.799   2.478   9.551
 2301SOL    HW111750   1.775   2.469   9.458
 2301SOL    HW211751   1.755   2.404   9.594
 2302SOL     OW11752   0.281   3.515   9.832
 2302SOL    HW111753   0.231   3.596   9.837
 2302SOL    HW211754   0.355   3.535   9.774
 2303SOL     OW11755   0.261   3.242   9.823
 2303SOL    HW111756   0.273   3.336   9.835
 2303SOL    HW211757   0.186   3.220   9.878
 2304SOL     OW11758   0.603   2.867   9.515
 2304SOL    HW111759   0.622   2.932   9.447
 2304SOL    HW211760   0.683   2.862   9.567
 2305SOL     OW11761   0.116   2.487   9.863
 2305SOL    HW111762   0.066   2.409   9.887
 2305SOL    HW211763   0.159   2.513   9.944
 2306SOL     OW11764   1.929   3.558   9.692
 2306SOL    HW111765   1.934   3.494   9.763
 2306SOL    HW211766   1.835   3.574   9.681
 2307SOL     OW11767   9.972   3.413   9.515
 2307SOL    HW111768   0.011   3.350   9.454
 2307SOL    HW211769   9.963   3.365   9.597
 2308SOL     OW11770   1.666   2.743   9.877
 2308SOL    HW111771   1.726   2.760   9.950
 2308SOL    HW211772   1.579   2.758   9.913
 2309SOL     OW11773   0.623   3.187   9.976
 2309SOL    HW111774   0.558   3.120   9.995
 2309SOL    HW211775   0.610   3.207   9.883
 2310SOL     OW11776   0.831   1.893   9.814
 2310SOL    HW111777   0.877   1.971   9.782
 2310SOL    HW211778   0.741   1.922   9.828
 2311SOL     OW11779   1.605   2.892   9.552
 2311SOL    HW111780   1.518   2.854   9.566
 2311SOL    HW211781   1.666   2.825   9.583
 2312SOL     OW11782   0.594   2.596   9.597
 2312SOL    HW111783   0.596   2.686   9.564
 2312SOL    HW211784   0.516   2.592   9.652
 2313SOL     OW11785   1.664   3.635   9.657
 2313SOL    HW111786   1.645   3.551   9.700
 2313SOL    HW211787   1.597   3.643   9.590
 2314SOL     OW11788   1.084   2.544   9.731
 2314SOL    HW111789   1.092   2.509   9.820
 2314SOL    HW211790   0.990   2.537   9.711
 2315SOL     OW11791   0.023   2.838   0.094
 2315SOL    HW111792   0.115   2.813   0.093
 2315SOL    HW211793   0.009   2.874   0.182
 2316SOL     OW11794   0.866   2.251   9.500
 2316SOL    HW111795   0.926   2.286   9.434
 2316SOL    HW211796   0.802   2.200   9.450
 2317SOL     OW11797   1.020   3.370   9.779
 2317SOL    HW111798   0.977   3.440   9.731
 2317SOL    HW211799   0.965   3.355   9.856
 2318SOL     OW11800   0.350   3.616   0.147
 2318SOL    HW111801   0.370   3.534   0.102
 2318SOL    HW211802   0.407   3.616   0.224
 2319SOL     OW11803   0.329   2.837   9.552
 2319SOL    HW111804   0.422   2.853   9.537
 2319SOL    HW211805   0.313   2.752   9.510
 2320SOL     OW11806   1.189   3.563   9.516
 2320SOL    HW111807   1.232   3.549   9.600
 2320SOL    HW211808   1.096   3.569   9.537
 2321SOL     OW11809   0.482   3.580   9.647
 2321SOL    HW111810   0.515   3.663   9.681
 2321SOL    HW211811   0.548   3.552   9.583
 2322SOL     OW11812   1.451   1.990   9.690
 2322SOL    HW111813   1.391   2.003   9.763
 2322SOL    HW211814   1.538   2.007   9.727
 2323SOL     OW11815   0.381   2.532   9.759
 2323SOL    HW111816   0.413   2.455   9.805
 2323SOL    HW211817   0.290   2.540   9.786
 2324SOL     OW11818   0.638   1.981   9.399
 2324SOL    HW111819   0.621   1.911   9.462
 2324SOL    HW211820   0.587   1.957   9.322
 2325SOL     OW11821   0.582   2.017   9.853
 2325SOL    HW111822   0.495   1.995   9.887
 2325SOL    HW211823   0.566   2.053   9.766
 2326SOL     OW11824   0.331   1.977   9.460
 2326SOL    HW111825   0.356   2.042   9.526
 2326SOL    HW211826   0.387   1.902   9.478
 2327SOL     OW11827   0.953   2.125   9.732
 2327SOL    HW111828   0.928   2.163   9.648
 2327SOL    HW211829   1.046   2.147   9.742
 2328SOL     OW11830   0.417   3.022   0.050
 2328SOL    HW111831   0.362   3.078   0.104
 2328SOL    HW211832   0.359   2.952   0.020
 2329SOL     OW11833   1.261   3.712   9.892
 2329SOL    HW111834   1.241   3.789   9.945
 2329SOL    HW211835   1.229   3.638   9.943
 2330SOL     OW11836   1.041   2.377   9.325
 2330SOL    HW111837   1.003   2.463   9.303
 2330SOL    HW211838   1.103   2.395   9.395
 2331SOL     OW11839   0.822   2.298   9.905
 2331SOL    HW111840   0.809   2.365   9.838
 2331SOL    HW211841   0.857   2.222   9.858
 2332SOL     OW11842   1.822   2.727   9.655
 2332SOL    HW111843   1.768   2.724   9.734
 2332SOL    HW211844   1.816   2.639   9.618
 2333SOL     OW11845   0.460   3.306   9.399
 2333SOL    HW111846   0.402   3.268   9.464
 2333SOL    HW211847   0.502   3.231   9.357
 2334SOL     OW11848   1.409   2.449   9.370
 2334SOL    HW111849   1.349   2.415   9.436
 2334SOL    HW211850   1.496   2.423   9.400
 2335SOL     OW11851   0.527   2.127   9.608
 2335SOL    HW111852   0.574   2.085   9.537
 2335SOL    HW211853   0.509   2.216   9.577
 2336SOL     OW11854   0.264   2.956   9.800
 2336SOL    HW111855   0.310   3.040   9.802
 2336SOL    HW211856   0.304   2.908   9.727
 2337SOL     OW11857   1.270   3.258   9.633
 2337SOL    HW111858   1.296   3.342   9.669
 2337SOL    HW211859   1.182   3.243   9.668
 2338SOL     OW11860   1.603   2.473   9.840
 2338SOL    HW111861   1.548   2.456   9.916
 2338SOL    HW211862   1.622   2.567   9.844
 2339SOL     OW11863   1.212   2.386   9.550
 2339SOL    HW111864   1.218   2.313   9.611
 2339SOL    HW211865   1.176   2.458   9.602
 2340SOL     OW11866   0.340   1.956   9.961
 2340SOL    HW111867   0.300   2.000   0.037
 2340SOL    HW211868   0.358   1.868   9.992
 2341SOL     OW11869   1.653   2.273   9.665
 2341SOL    HW111870   1.669   2.196   9.719
 2341SOL    HW211871   1.628   2.341   9.728
 2342SOL     OW11872   1.530   2.143   9.454
 2342SOL    HW111873   1.484   2.081   9.510
 2342SOL    HW211874   1.580   2.197   9.515
 2343SOL     OW11875   1.285   2.701   9.380
 2343SOL    HW111876   1.322   2.613   9.383
 2343SOL    HW211877   1.291   2.727   9.288
 2344SOL     OW11878   0.819   2.462   9.683
 2344SOL    HW111879   0.831   2.394   9.617
 2344SOL    HW211880   0.748   2.516   9.649
 2345SOL     OW11881   0.481   2.366   9.490
 2345SOL    HW111882   0.533   2.442   9.516
 2345SOL    HW211883   0.392   2.399   9.480
 2346SOL     OW11884   1.341   2.826   9.620
 2346SOL    HW111885   1.264   2.812   9.675
 2346SOL    HW211886   1.318   2.785   9.536
 2347SOL     OW11887   1.701   2.038   9.804
 2347SOL    HW111888   1.780   2.001   9.766
 2347SOL    HW211889   1.719   2.043   9.898
 2348SOL     OW11890   1.357   3.506   9.726
 2348SOL    HW111891   1.443   3.474   9.753
 2348SOL    HW211892   1.331   3.567   9.795
 2349SOL     OW11893   0.667   3.484   9.460
 2349SOL    HW111894   0.688   3.525   9.375
 2349SOL    HW211895   0.603   3.417   9.439
 2350SOL     OW11896   0.613   3.252   9.711
 2350SOL    HW111897   0.699   3.222   9.680
 2350SOL    HW211898   0.601   3.337   9.668
 2351SOL     OW11899   0.266   3.184   9.556
 2351SOL    HW111900   0.219   3.101   9.567
 2351SOL    HW211901   0.275   3.219   9.645
 2352SOL     OW11902   0.008   2.184   9.247
 2352SOL    HW111903   9.952   2.118   9.289
 2352SOL    HW211904   9.947   2.245   9.206
 2353SOL     OW11905   0.059   2.030   9.621
 2353SOL    HW111906   0.122   2.079   9.674
 2353SOL    HW211907   0.053   1.945   9.664
 2354SOL     OW11908   1.209   2.233   9.788
 2354SOL    HW111909   1.295   2.218   9.829
 2354SOL    HW211910   1.165   2.293   9.847
 2355SOL     OW11911   0.848   3.155   9.380
 2355SOL    HW111912   0.854   3.154   9.476
 2355SOL    HW211913   0.909   3.224   9.353
 2356SOL     OW11914   0.983   2.794   9.445
 2356SOL    HW111915   0.950   2.825   9.529
 2356SOL    HW211916   1.078   2.792   9.456
 2357SOL     OW11917   0.035   3.067   9.903
 2357SOL    HW111918   9.991   3.013   9.968
 2357SOL    HW211919   0.111   3.015   9.876
 2358SOL     OW11920   0.456   2.303   9.904
 2358SOL    HW111921   0.531   2.245   9.890
 2358SOL    HW211922   0.455   2.319   9.999
 2359SOL     OW11923   0.874   3.173   9.650
 2359SOL    HW111924   0.909   3.086   9.669
 2359SOL    HW211925   0.930   3.233   9.699
 2360SOL     OW11926   0.077   2.945   9.527
 2360SOL    HW111927   0.162   2.901   9.532
 2360SOL    HW211928   0.037   2.930   9.612
 2361SOL     OW11929   0.916   3.562   9.604
 2361SOL    HW111930   0.839   3.538   9.552
 2361SOL    HW211931   0.887   3.638   9.656
 2362SOL     OW11932   0.222   4.486   0.141
 2362SOL    HW111933   0.214   4.420   0.210
 2362SOL    HW211934   0.206   4.438   0.059
 2363SOL     OW11935   0.184   3.953   1.007
 2363SOL    HW111936   0.213   3.949   1.098
 2363SOL    HW211937   0.141   3.870   0.991
 2364SOL     OW11938   0.010   4.076   0.665
 2364SOL    HW111939   9.940   4.012   0.679
 2364SOL    HW211940   0.057   4.043   0.589
 2365SOL     OW11941   0.555   5.021   1.251
 2365SOL    HW111942   0.487   5.005   1.317
 2365SOL    HW211943   0.550   5.115   1.234
 2366SOL     OW11944   1.597   5.228   0.691
 2366SOL    HW111945   1.555   5.189   0.768
 2366SOL    HW211946   1.526   5.240   0.628
 2367SOL     OW11947   1.139   4.461   0.688
 2367SOL    HW111948   1.217   4.516   0.701
 2367SOL    HW211949   1.090   4.470   0.769
 2368SOL     OW11950   1.785   4.295   0.195
 2368SOL    HW111951   1.709   4.311   0.140
 2368SOL    HW211952   1.756   4.226   0.256
 2369SOL     OW11953   0.778   4.880   1.106
 2369SOL    HW111954   0.690   4.890   1.142
 2369SOL    HW211955   0.792   4.959   1.054
 2370SOL     OW11956   0.905   4.460   1.836
 2370SOL    HW111957   0.909   4.514   1.915
 2370SOL    HW211958   0.913   4.522   1.763
 2371SOL     OW11959   0.691   4.707   0.661
 2371SOL    HW111960   0.756   4.706   0.731
 2371SOL    HW211961   0.631   4.777   0.684
 2372SOL     OW11962   0.725   4.898   1.825
 2372SOL    HW111963   0.768   4.976   1.859
 2372SOL    HW211964   0.638   4.927   1.799
 2373SOL     OW11965   0.319   5.161   1.022
 2373SOL    HW111966   0.289   5.073   1.041
 2373SOL    HW211967   0.258   5.193   0.954
 2374SOL     OW11968   1.416   5.250   1.355
 2374SOL    HW111969   1.471   5.328   1.346
 2374SOL    HW211970   1.358   5.269   1.428
 2375SOL     OW11971   0.480   4.121   1.454
 2375SOL    HW111972   0.557   4.068   1.471
 2375SOL    HW211973   0.407   4.070   1.489
 2376SOL     OW11974   0.285   5.396   0.489
 2376SOL    HW111975   0.233   5.472   0.516
 2376SOL    HW211976   0.367   5.434   0.457
 2377SOL     OW11977   1.180   5.035   1.715
 2377SOL    HW111978   1.198   5.030   1.809
 2377SOL    HW211979   1.103   4.979   1.702
 2378SOL     OW11980   0.195   5.153   0.554
 2378SOL    HW111981   0.227   5.240   0.532
 2378SOL    HW211982   0.101   5.157   0.534
 2379SOL     OW11983   0.336   4.787   0.923
 2379SOL    HW111984   0.307   4.695   0.922
 2379SOL    HW211985   0.273   4.830   0.981
 2380SOL     OW11986   0.574   5.484   1.431
 2380SOL    HW111987   0.484   5.483   1.464
 2380SOL    HW211988   0.602   5.575   1.441
 2381SOL     OW11989   0.602   4.679   0.162
 2381SOL    HW111990   0.565   4.749   0.108
 2381SOL    HW211991   0.655   4.725   0.227
 2382SOL     OW11992   0.013   4.342   0.589
 2382SOL    HW111993   0.009   4.248   0.608
 2382SOL    HW211994   0.077   4.350   0.518
 2383SOL     OW11995   1.885   5.462   0.296
 2383SOL    HW111996   1.948   5.449   0.367
 2383SOL    HW211997   1.878   5.557   0.287
 2384SOL     OW11998   0.025   5.370   0.178
 2384SOL    HW111999   0.030   5.275   0.165
 2384SOL    HW212000   0.116   5.400   0.173
 2385SOL     OW12001   1.759   4.687   0.684
 2385SOL    HW112002   1.737   4.596   0.704
 2385SOL    HW212003   1.711   4.706   0.604
 2386SOL     OW12004   1.673   4.809   0.438
 2386SOL    HW112005   1.760   4.783   0.408
 2386SOL    HW212006   1.683   4.902   0.461
 2387SOL     OW12007   0.130   4.471   1.619
 2387SOL    HW112008   0.225   4.479   1.627
 2387SOL    HW212009   0.095   4.514   1.697
 2388SOL     OW12010   0.590   5.155   0.804
 2388SOL    HW112011   0.561   5.066   0.789
 2388SOL    HW212012   0.595   5.194   0.717
 2389SOL     OW12013   1.380   4.932   1.391
 2389SOL    HW112014   1.366   4.850   1.343
 2389SOL    HW212015   1.394   4.905   1.482
 2390SOL     OW12016   0.851   3.766   0.520
 2390SOL    HW112017   0.880   3.847   0.479
 2390SOL    HW212018   0.756   3.778   0.530
 2391SOL     OW12019   0.203   4.661   1.310
 2391SOL    HW112020   0.289   4.643   1.272
 2391SOL    HW212021   0.159   4.576   1.309
 2392SOL     OW12022   1.498   4.782   0.224
 2392SOL    HW112023   1.427   4.723   0.252
 2392SOL    HW212024   1.563   4.775   0.293
 2393SOL     OW12025   1.243   5.580   1.658
 2393SOL    HW112026   1.225   5.650   1.596
 2393SOL    HW212027   1.175   5.515   1.643
 2394SOL     OW12028   0.339   3.929   1.783
 2394SOL    HW112029   0.334   4.020   1.812
 2394SOL    HW212030   0.345   3.878   1.863
 2395SOL     OW12031   1.465   5.119   0.908
 2395SOL    HW112032   1.388   5.173   0.893
 2395SOL    HW212033   1.434   5.029   0.897
 2396SOL     OW12034   1.671   5.486   0.571
 2396SOL    HW112035   1.648   5.445   0.488
 2396SOL    HW212036   1.644   5.422   0.637
 2397SOL     OW12037   0.618   4.425   0.288
 2397SOL    HW112038   0.618   4.511   0.245
 2397SOL    HW212039   0.550   4.431   0.354
 2398SOL     OW12040   1.250   4.085   0.900
 2398SOL    HW112041   1.164   4.050   0.920
 2398SOL    HW212042   1.311   4.027   0.947
 2399SOL     OW12043   1.617   5.372   0.319
 2399SOL    HW112044   1.708   5.399   0.305
 2399SOL    HW212045   1.591   5.332   0.237
 2400SOL     OW12046   0.776   4.317   1.442
 2400SOL    HW112047   0.761   4.282   1.529
 2400SOL    HW212048   0.756   4.244   1.383
 2401SOL     OW12049   1.420   4.226   1.659
 2401SOL    HW112050   1.406   4.261   1.747
 2401SOL    HW212051   1.458   4.139   1.673
 2402SOL     OW12052   0.954   4.608   1.597
 2402SOL    HW112053   0.997   4.530   1.560
 2402SOL    HW212054   0.902   4.643   1.524
 2403SOL     OW12055   1.033   4.136   1.195
 2403SOL    HW112056   0.944   4.142   1.230
 2403SOL    HW212057   1.024   4.083   1.116
 2404SOL     OW12058   1.092   4.447   0.415
 2404SOL    HW112059   1.098   4.447   0.510
 2404SOL    HW212060   1.013   4.397   0.396
 2405SOL     OW12061   9.998   4.575   0.854
 2405SOL    HW112062   0.089   4.557   0.878
 2405SOL    HW212063   9.959   4.613   0.932
 2406SOL     OW12064   0.124   5.608   1.660
 2406SOL    HW112065   0.158   5.636   1.745
 2406SOL    HW212066   0.069   5.681   1.632
 2407SOL     OW12067   1.765   4.275   1.801
 2407SOL    HW112068   1.720   4.356   1.778
 2407SOL    HW212069   1.739   4.213   1.733
 2408SOL     OW12070   1.416   4.856   0.570
 2408SOL    HW112071   1.481   4.834   0.503
 2408SOL    HW212072   1.353   4.912   0.524
 2409SOL     OW12073   0.577   3.929   0.919
 2409SOL    HW112074   0.570   3.937   1.014
 2409SOL    HW212075   0.555   4.017   0.887
 2410SOL     OW12076   1.014   5.197   0.480
 2410SOL    HW112077   0.987   5.261   0.414
 2410SOL    HW212078   0.971   5.226   0.560
 2411SOL     OW12079   0.374   5.479   0.942
 2411SOL    HW112080   0.376   5.546   0.874
 2411SOL    HW212081   0.328   5.520   1.015
 2412SOL     OW12082   1.800   4.870   0.885
 2412SOL    HW112083   1.779   4.805   0.818
 2412SOL    HW212084   1.733   4.858   0.952
 2413SOL     OW12085   1.197   5.236   1.518
 2413SOL    HW112086   1.187   5.183   1.597
 2413SOL    HW212087   1.118   5.289   1.515
 2414SOL     OW12088   0.344   4.690   0.273
 2414SOL    HW112089   0.435   4.685   0.243
 2414SOL    HW212090   0.300   4.617   0.229
 2415SOL     OW12091   0.473   5.016   1.743
 2415SOL    HW112092   0.443   5.023   1.653
 2415SOL    HW212093   0.396   4.989   1.792
 2416SOL     OW12094   1.098   5.479   0.164
 2416SOL    HW112095   1.037   5.466   0.236
 2416SOL    HW212096   1.114   5.391   0.130
 2417SOL     OW12097   0.230   4.000   1.531
 2417SOL    HW112098   0.142   3.968   1.511
 2417SOL    HW212099   0.251   3.959   1.616
 2418SOL     OW12100   1.560   5.251   0.063
 2418SOL    HW112101   1.655   5.249   0.047
 2418SOL    HW212102   1.535   5.159   0.068
 2419SOL     OW12103   0.506   5.514   0.377
 2419SOL    HW112104   0.526   5.585   0.438
 2419SOL    HW212105   0.555   5.535   0.298
 2420SOL     OW12106   1.546   3.847   0.410
 2420SOL    HW112107   1.521   3.829   0.319
 2420SOL    HW212108   1.474   3.813   0.462
 2421SOL     OW12109   0.221   5.521   1.179
 2421SOL    HW112110   0.238   5.441   1.229
 2421SOL    HW212111   0.144   5.500   1.126
 2422SOL     OW12112   0.961   5.430   0.898
 2422SOL    HW112113   1.008   5.501   0.854
 2422SOL    HW212114   0.925   5.377   0.827
 2423SOL     OW12115   0.402   4.400   0.461
 2423SOL    HW112116   0.423   4.317   0.504
 2423SOL    HW212117   0.316   4.386   0.422
 2424SOL     OW12118   1.549   3.996   1.727
 2424SOL    HW112119   1.547   4.000   1.822
 2424SOL    HW212120   1.553   3.902   1.706
 2425SOL     OW12121   0.649   3.872   0.159
 2425SOL    HW112122   0.735   3.847   0.193
 2425SOL    HW212123   0.665   3.894   0.067
 2426SOL     OW12124   0.797   3.971   1.783
 2426SOL    HW112125   0.877   3.920   1.773
 2426SOL    HW212126   0.744   3.920   1.845
 2427SOL     OW12127   0.855   5.228   1.230
 2427SOL    HW112128   0.856   5.195   1.140
 2427SOL    HW212129   0.837   5.151   1.283
 2428SOL     OW12130   1.405   4.305   1.393
 2428SOL    HW112131   1.412   4.274   1.483
 2428SOL    HW212132   1.384   4.398   1.401
 2429SOL     OW12133   0.826   5.119   0.973
 2429SOL    HW112134   0.911   5.123   0.929
 2429SOL    HW212135   0.763   5.136   0.903
 2430SOL     OW12136   0.925   4.235   0.886
 2430SOL    HW112137   0.917   4.223   0.791
 2430SOL    HW212138   0.941   4.148   0.921
 2431SOL     OW12139   0.582   3.821   0.515
 2431SOL    HW112140   0.503   3.810   0.569
 2431SOL    HW212141   0.561   3.894   0.456
 2432SOL     OW12142   1.452   5.003   0.071
 2432SOL    HW112143   1.487   4.924   0.110
 2432SOL    HW212144   1.360   5.004   0.097
 2433SOL     OW12145   0.951   4.008   0.415
 2433SOL    HW112146   0.935   3.964   0.331
 2433SOL    HW212147   1.045   3.998   0.430
 2434SOL     OW12148   1.041   4.379   1.465
 2434SOL    HW112149   0.950   4.350   1.463
 2434SOL    HW212150   1.088   4.307   1.508
 2435SOL     OW12151   1.297   5.321   0.815
 2435SOL    HW112152   1.270   5.365   0.734
 2435SOL    HW212153   1.360   5.382   0.854
 2436SOL     OW12154   0.503   4.900   0.736
 2436SOL    HW112155   0.442   4.862   0.800
 2436SOL    HW212156   0.458   4.892   0.652
 2437SOL     OW12157   1.278   5.499   0.594
 2437SOL    HW112158   1.324   5.574   0.555
 2437SOL    HW212159   1.198   5.537   0.631
 2438SOL     OW12160   0.111   4.403   1.356
 2438SOL    HW112161   0.190   4.354   1.334
 2438SOL    HW212162   0.114   4.413   1.451
 2439SOL     OW12163   0.554   3.946   1.192
 2439SOL    HW112164   0.580   3.867   1.240
 2439SOL    HW212165   0.461   3.958   1.214
 2440SOL     OW12166   0.912   4.194   0.619
 2440SOL    HW112167   0.883   4.255   0.550
 2440SOL    HW212168   0.923   4.111   0.574
 2441SOL     OW12169   0.992   3.803   0.758
 2441SOL    HW112170   0.947   3.787   0.675
 2441SOL    HW212171   0.980   3.723   0.808
 2442SOL     OW12172   1.412   4.854   0.845
 2442SOL    HW112173   1.368   4.770   0.850
 2442SOL    HW212174   1.421   4.872   0.752
 2443SOL     OW12175   1.912   4.509   0.322
 2443SOL    HW112176   1.936   4.465   0.404
 2443SOL    HW212177   1.857   4.445   0.276
 2444SOL     OW12178   0.422   5.216   0.129
 2444SOL    HW112179   0.380   5.159   0.193
 2444SOL    HW212180   0.394   5.183   0.044
 2445SOL     OW12181   1.741   5.068   0.506
 2445SOL    HW112182   1.811   5.036   0.563
 2445SOL    HW212183   1.688   5.124   0.562
 2446SOL     OW12184   1.472   4.285   0.086
 2446SOL    HW112185   1.425   4.289   0.170
 2446SOL    HW212186   1.490   4.191   0.073
 2447SOL     OW12187   0.500   4.014   0.338
 2447SOL    HW112188   0.545   3.957   0.276
 2447SOL    HW212189   0.480   4.093   0.288
 2448SOL     OW12190   1.736   4.919   1.648
 2448SOL    HW112191   1.749   4.853   1.715
 2448SOL    HW212192   1.734   5.002   1.696
 2449SOL     OW12193   1.046   4.978   1.422
 2449SOL    HW112194   0.954   4.997   1.406
 2449SOL    HW212195   1.048   4.936   1.508
 2450SOL     OW12196   1.669   5.315   1.591
 2450SOL    HW112197   1.643   5.364   1.513
 2450SOL    HW212198   1.597   5.329   1.652
 2451SOL     OW12199   1.147   4.990   1.135
 2451SOL    HW112200   1.063   4.949   1.155
 2451SOL    HW212201   1.135   5.029   1.049
 2452SOL     OW12202   1.585   4.817   1.057
 2452SOL    HW112203   1.520   4.816   1.127
 2452SOL    HW212204   1.534   4.826   0.977
 2453SOL     OW12205   0.921   3.825   1.375
 2453SOL    HW112206   0.941   3.798   1.285
 2453SOL    HW212207   1.004   3.860   1.408
 2454SOL     OW12208   0.962   4.873   1.667
 2454SOL    HW112209   0.884   4.886   1.720
 2454SOL    HW212210   0.973   4.778   1.662
 2455SOL     OW12211   0.740   4.778   0.384
 2455SOL    HW112212   0.722   4.744   0.472
 2455SOL    HW212213   0.827   4.745   0.362
 2456SOL     OW12214   0.447   4.545   1.242
 2456SOL    HW112215   0.504   4.552   1.318
 2456SOL    HW212216   0.412   4.455   1.247
 2457SOL     OW12217   1.294   4.081   1.263
 2457SOL    HW112218   1.328   4.158   1.309
 2457SOL    HW212219   1.204   4.104   1.240
 2458SOL     OW12220   0.067   5.257   1.418
 2458SOL    HW112221   0.041   5.336   1.466
 2458SOL    HW212222   0.151   5.281   1.377
 2459SOL     OW12223   0.385   4.864   0.489
 2459SOL    HW112224   0.360   4.936   0.433
 2459SOL    HW212225   0.377   4.786   0.434
 2460SOL     OW12226   0.520   4.204   0.875
 2460SOL    HW112227   0.526   4.239   0.786
 2460SOL    HW212228   0.586   4.252   0.925
 2461SOL     OW12229   1.252   5.056   0.451
 2461SOL    HW112230   1.311   5.130   0.465
 2461SOL    HW212231   1.165   5.092   0.466
 2462SOL     OW12232   1.555   4.314   0.480
 2462SOL    HW112233   1.560   4.367   0.559
 2462SOL    HW212234   1.464   4.323   0.451
 2463SOL     OW12235   0.305   5.272   1.277
 2463SOL    HW112236   0.295   5.226   1.193
 2463SOL    HW212237   0.399   5.290   1.283
 2464SOL     OW12238   0.407   4.482   1.623
 2464SOL    HW112239   0.477   4.507   1.562
 2464SOL    HW212240   0.437   4.399   1.660
 2465SOL     OW12241   1.663   4.510   1.703
 2465SOL    HW112242   1.567   4.520   1.702
 2465SOL    HW212243   1.692   4.552   1.622
 2466SOL     OW12244   1.008   3.797   1.787
 2466SOL    HW112245   1.079   3.756   1.737
 2466SOL    HW212246   0.996   3.739   1.862
 2467SOL     OW12247   0.511   3.748   1.662
 2467SOL    HW112248   0.438   3.695   1.630
 2467SOL    HW212249   0.469   3.821   1.709
 2468SOL     OW12250   0.615   4.597   1.028
 2468SOL    HW112251   0.562   4.648   0.968
 2468SOL    HW212252   0.557   4.580   1.103
 2469SOL     OW12253   1.275   4.506   1.072
 2469SOL    HW112254   1.199   4.502   1.015
 2469SOL    HW212255   1.260   4.436   1.136
 2470SOL     OW12256   1.309   4.293   0.314
 2470SOL    HW112257   1.280   4.211   0.273
 2470SOL    HW212258   1.229   4.333   0.347
 2471SOL     OW12259   0.285   3.937   1.261
 2471SOL    HW112260   0.256   3.967   1.347
 2471SOL    HW212261   0.263   3.844   1.260
 2472SOL     OW12262   0.045   4.997   1.331
 2472SOL    HW112263   0.077   4.947   1.406
 2472SOL    HW212264   0.039   5.087   1.364
 2473SOL     OW12265   0.708   4.334   1.030
 2473SOL    HW112266   0.786   4.319   0.977
 2473SOL    HW212267   0.690   4.428   1.021
 2474SOL     OW12268   1.749   4.729   1.850
 2474SOL    HW112269   1.715   4.647   1.814
 2474SOL    HW212270   1.699   4.742   1.930
 2475SOL     OW12271   0.327   3.812   0.630
 2475SOL    HW112272   0.314   3.894   0.677
 2475SOL    HW212273   0.345   3.747   0.698
 2476SOL     OW12274   1.654   4.099   0.345
 2476SOL    HW112275   1.613   4.019   0.378
 2476SOL    HW212276   1.618   4.169   0.400
 2477SOL     OW12277   1.021   4.479   0.956
 2477SOL    HW112278   0.996   4.485   1.048
 2477SOL    HW212279   0.994   4.391   0.929
 2478SOL     OW12280   0.999   5.291   1.736
 2478SOL    HW112281   0.942   5.317   1.663
 2478SOL    HW212282   0.950   5.223   1.781
 2479SOL     OW12283   1.916   5.223   1.651
 2479SOL    HW112284   1.830   5.255   1.624
 2479SOL    HW212285   1.918   5.238   1.746
 2480SOL     OW12286   0.320   4.702   1.763
 2480SOL    HW112287   0.375   4.697   1.842
 2480SOL    HW212288   0.351   4.631   1.707
 2481SOL     OW12289   1.594   4.038   0.081
 2481SOL    HW112290   1.535   3.963   0.086
 2481SOL    HW212291   1.622   4.052   0.172
 2482SOL     OW12292   1.341   4.528   0.045
 2482SOL    HW112293   1.372   4.438   0.051
 2482SOL    HW212294   1.407   4.573   9.994
 2483SOL     OW12295   1.097   5.099   0.885
 2483SOL    HW112296   1.095   5.023   0.827
 2483SOL    HW212297   1.144   5.166   0.835
 2484SOL     OW12298   0.280   4.513   0.901
 2484SOL    HW112299   0.349   4.504   0.834
 2484SOL    HW212300   0.281   4.429   0.947
 2485SOL     OW12301   0.289   4.213   1.021
 2485SOL    HW112302   0.250   4.126   1.016
 2485SOL    HW212303   0.367   4.207   0.966
 2486SOL     OW12304   1.154   4.169   1.609
 2486SOL    HW112305   1.112   4.181   1.695
 2486SOL    HW212306   1.246   4.187   1.625
 2487SOL     OW12307   1.163   3.926   1.463
 2487SOL    HW112308   1.146   4.000   1.522
 2487SOL    HW212309   1.215   3.963   1.392
 2488SOL     OW12310   9.980   5.031   0.233
 2488SOL    HW112311   9.904   5.012   0.178
 2488SOL    HW212312   0.011   4.945   0.263
 2489SOL     OW12313   0.053   5.447   0.964
 2489SOL    HW112314   0.101   5.384   0.910
 2489SOL    HW212315   0.056   5.529   0.914
 2490SOL     OW12316   0.949   4.475   1.218
 2490SOL    HW112317   0.999   4.450   1.296
 2490SOL    HW212318   0.864   4.434   1.231
 2491SOL     OW12319   0.053   4.338   1.087
 2491SOL    HW112320   0.138   4.295   1.075
 2491SOL    HW212321   0.047   4.354   1.181
 2492SOL     OW12322   0.167   4.207   1.708
 2492SOL    HW112323   0.183   4.143   1.638
 2492SOL    HW212324   0.129   4.283   1.663
 2493SOL     OW12325   1.406   4.600   1.660
 2493SOL    HW112326   1.410   4.696   1.663
 2493SOL    HW212327   1.385   4.580   1.569
 2494SOL     OW12328   0.860   4.306   0.368
 2494SOL    HW112329   0.857   4.214   0.342
 2494SOL    HW212330   0.777   4.343   0.336
 2495SOL     OW12331   1.603   4.326   1.197
 2495SOL    HW112332   1.530   4.312   1.259
 2495SOL    HW212333   1.664   4.255   1.217
 2496SOL     OW12334   0.276   5.294   1.748
 2496SOL    HW112335   0.259   5.346   1.827
 2496SOL    HW212336   0.202   5.234   1.742
 2497SOL     OW12337   0.752   4.143   1.228
 2497SOL    HW112338   0.690   4.071   1.227
 2497SOL    HW212339   0.723   4.202   1.159
 2498SOL     OW12340   0.968   5.382   1.447
 2498SOL    HW112341   0.926   5.342   1.371
 2498SOL    HW212342   0.951   5.476   1.437
 2499SOL     OW12343   0.458   4.230   0.172
 2499SOL    HW112344   0.522   4.288   0.212
 2499SOL    HW212345   0.445   4.265   0.084
 2500SOL     OW12346   0.200   4.839   1.516
 2500SOL    HW112347   0.226   4.791   1.595
 2500SOL    HW212348   0.201   4.773   1.446
 2501SOL     OW12349   1.327   4.757   1.177
 2501SOL    HW112350   1.307   4.678   1.127
 2501SOL    HW212351   1.264   4.822   1.146
 2502SOL     OW12352   1.308   4.604   0.314
 2502SOL    HW112353   1.242   4.554   0.363
 2502SOL    HW212354   1.318   4.555   0.232
 2503SOL     OW12355   1.695   5.434   1.090
 2503SOL    HW112356   1.765   5.476   1.041
 2503SOL    HW212357   1.703   5.341   1.071
 2504SOL     OW12358   1.241   5.466   1.081
 2504SOL    HW112359   1.324   5.485   1.038
 2504SOL    HW212360   1.195   5.407   1.022
 2505SOL     OW12361   0.152   4.939   1.076
 2505SOL    HW112362   0.137   4.945   1.171
 2505SOL    HW212363   0.064   4.934   1.039
 2506SOL     OW12364   0.667   5.420   1.700
 2506SOL    HW112365   0.602   5.482   1.732
 2506SOL    HW212366   0.667   5.432   1.605
 2507SOL     OW12367   0.924   3.856   0.194
 2507SOL    HW112368   0.909   3.888   0.105
 2507SOL    HW212369   0.992   3.790   0.185
 2508SOL     OW12370   1.414   5.282   0.494
 2508SOL    HW112371   1.471   5.317   0.426
 2508SOL    HW212372   1.359   5.356   0.520
 2509SOL     OW12373   1.368   4.609   0.713
 2509SOL    HW112374   1.447   4.555   0.716
 2509SOL    HW212375   1.386   4.675   0.647
 2510SOL     OW12376   0.780   5.019   1.401
 2510SOL    HW112377   0.755   5.061   1.483
 2510SOL    HW212378   0.698   5.008   1.353
 2511SOL     OW12379   0.684   5.315   0.174
 2511SOL    HW112380   0.660   5.405   0.150
 2511SOL    HW212381   0.603   5.265   0.165
 2512SOL     OW12382   1.607   5.456   1.350
 2512SOL    HW112383   1.618   5.459   1.255
 2512SOL    HW212384   1.615   5.547   1.378
 2513SOL     OW12385   0.270   4.041   0.761
 2513SOL    HW112386   0.183   4.067   0.729
 2513SOL    HW212387   0.254   4.007   0.849
 2514SOL     OW12388   1.161   5.231   0.046
 2514SOL    HW112389   1.173   5.152   0.099
 2514SOL    HW212390   1.073   5.221   0.008
 2515SOL     OW12391   0.813   4.731   1.386
 2515SOL    HW112392   0.824   4.725   1.291
 2515SOL    HW212393   0.806   4.824   1.403
 2516SOL     OW12394   0.987   4.689   0.303
 2516SOL    HW112395   1.035   4.705   0.221
 2516SOL    HW212396   1.023   4.606   0.335
 2517SOL     OW12397   0.377   5.041   1.467
 2517SOL    HW112398   0.325   5.119   1.448
 2517SOL    HW212399   0.313   4.972   1.482
 2518SOL     OW12400   1.635   5.079   1.320
 2518SOL    HW112401   1.616   5.003   1.375
 2518SOL    HW212402   1.559   5.136   1.329
 2519SOL     OW12403   1.073   4.864   0.749
 2519SOL    HW112404   1.002   4.814   0.791
 2519SOL    HW212405   1.091   4.815   0.668
 2520SOL     OW12406   1.008   3.972   0.970
 2520SOL    HW112407   0.996   3.928   0.886
 2520SOL    HW212408   1.009   3.901   1.034
 2521SOL     OW12409   0.620   5.257   0.545
 2521SOL    HW112410   0.653   5.185   0.491
 2521SOL    HW212411   0.568   5.310   0.484
 2522SOL     OW12412   1.774   4.126   1.299
 2522SOL    HW112413   1.769   4.153   1.391
 2522SOL    HW212414   1.763   4.031   1.301
 2523SOL     OW12415   0.266   5.062   0.303
 2523SOL    HW112416   0.178   5.045   0.268
 2523SOL    HW212417   0.251   5.093   0.392
 2524SOL     OW12418   0.706   3.956   1.508
 2524SOL    HW112419   0.784   3.921   1.464
 2524SOL    HW212420   0.731   3.960   1.600
 2525SOL     OW12421   0.008   4.106   9.942
 2525SOL    HW112422   9.985   4.037   0.004
 2525SOL    HW212423   0.082   4.070   9.893
 2526SOL     OW12424   1.409   4.585   1.383
 2526SOL    HW112425   1.354   4.632   1.319
 2526SOL    HW212426   1.497   4.587   1.346
 2527SOL     OW12427   0.157   3.799   0.214
 2527SOL    HW112428   0.140   3.767   0.303
 2527SOL    HW212429   0.220   3.736   0.178
 2528SOL     OW12430   1.200   4.996   0.178
 2528SOL    HW112431   1.168   4.908   0.157
 2528SOL    HW212432   1.209   4.995   0.274
 2529SOL     OW12433   0.619   4.542   1.454
 2529SOL    HW112434   0.683   4.613   1.444
 2529SOL    HW212435   0.671   4.462   1.454
 2530SOL     OW12436   1.473   5.500   0.933
 2530SOL    HW112437   1.488   5.591   0.908
 2530SOL    HW212438   1.544   5.480   0.994
 2531SOL     OW12439   0.763   4.244   1.702
 2531SOL    HW112440   0.801   4.303   1.767
 2531SOL    HW212441   0.770   4.157   1.741
 2532SOL     OW12442   1.461   4.870   1.644
 2532SOL    HW112443   1.427   4.905   1.726
 2532SOL    HW212444   1.554   4.891   1.645
 2533SOL     OW12445   0.328   5.470   1.547
 2533SOL    HW112446   0.252   5.525   1.564
 2533SOL    HW212447   0.316   5.395   1.606
 2534SOL     OW12448   1.652   4.600   1.246
 2534SOL    HW112449   1.648   4.508   1.218
 2534SOL    HW212450   1.650   4.649   1.164
 2535SOL     OW12451   1.225   3.984   0.440
 2535SOL    HW112452   1.231   3.998   0.346
 2535SOL    HW212453   1.278   4.055   0.478
 2536SOL     OW12454   0.488   4.501   0.712
 2536SOL    HW112455   0.562   4.559   0.692
 2536SOL    HW212456   0.456   4.473   0.626
 2537SOL     OW12457   1.751   4.106   1.579
 2537SOL    HW112458   1.661   4.090   1.605
 2537SOL    HW212459   1.787   4.019   1.560
 2538SOL     OW12460   1.764   4.664   1.495
 2538SOL    HW112461   1.749   4.757   1.512
 2538SOL    HW212462   1.727   4.651   1.407
 2539SOL     OW12463   0.874   5.172   0.029
 2539SOL    HW112464   0.819   5.096   0.009
 2539SOL    HW212465   0.818   5.227   0.085
 2540SOL     OW12466   0.689   5.438   0.964
 2540SOL    HW112467   0.664   5.531   0.969
 2540SOL    HW212468   0.783   5.439   0.949
 2541SOL     OW12469   0.876   4.717   0.879
 2541SOL    HW112470   0.914   4.633   0.906
 2541SOL    HW212471   0.828   4.747   0.957
 2542SOL     OW12472   1.150   4.738   0.067
 2542SOL    HW112473   1.159   4.765   9.976
 2542SOL    HW212474   1.206   4.661   0.075
 2543SOL     OW12475   1.837   5.267   0.825
 2543SOL    HW112476   1.757   5.259   0.773
 2543SOL    HW212477   1.821   5.212   0.902
 2544SOL     OW12478   0.226   4.985   1.891
 2544SOL    HW112479   0.164   5.035   1.838
 2544SOL    HW212480   0.238   5.038   1.970
 2545SOL     OW12481   0.032   4.830   0.574
 2545SOL    HW112482   9.950   4.842   0.621
 2545SOL    HW212483   0.100   4.845   0.640
 2546SOL     OW12484   0.687   5.152   1.620
 2546SOL    HW112485   0.618   5.105   1.667
 2546SOL    HW212486   0.684   5.241   1.655
 2547SOL     OW12487   0.451   4.163   0.582
 2547SOL    HW112488   0.468   4.099   0.513
 2547SOL    HW212489   0.395   4.117   0.644
 2548SOL     OW12490   1.694   5.160   1.055
 2548SOL    HW112491   1.615   5.140   1.004
 2548SOL    HW212492   1.678   5.119   1.140
 2549SOL     OW12493   0.350   4.291   1.282
 2549SOL    HW112494   0.400   4.233   1.340
 2549SOL    HW212495   0.343   4.243   1.200
 2550SOL     OW12496   0.853   5.347   0.658
 2550SOL    HW112497   0.852   5.436   0.624
 2550SOL    HW212498   0.769   5.310   0.630
 2551SOL     OW12499   1.451   3.970   1.044
 2551SOL    HW112500   1.465   3.876   1.034
 2551SOL    HW212501   1.410   3.979   1.130
 2552SOL     OW12502   1.022   3.740   1.121
 2552SOL    HW112503   0.973   3.680   1.065
 2552SOL    HW212504   1.104   3.693   1.140
 2553SOL     OW12505   0.750   5.058   0.411
 2553SOL    HW112506   0.732   4.965   0.396
 2553SOL    HW212507   0.845   5.065   0.409
 2554SOL     OW12508   0.583   5.303   1.222
 2554SOL    HW112509   0.576   5.371   1.289
 2554SOL    HW212510   0.678   5.292   1.209
 2555SOL     OW12511   1.450   3.811   0.142
 2555SOL    HW112512   1.454   3.723   0.104
 2555SOL    HW212513   1.364   3.844   0.116
 2556SOL     OW12514   1.311   4.236   0.682
 2556SOL    HW112515   1.241   4.299   0.665
 2556SOL    HW212516   1.271   4.170   0.739
 2557SOL     OW12517   0.088   4.794   0.312
 2557SOL    HW112518   0.180   4.765   0.309
 2557SOL    HW212519   0.067   4.799   0.405
 2558SOL     OW12520   0.896   5.405   0.334
 2558SOL    HW112521   0.820   5.370   0.289
 2558SOL    HW212522   0.861   5.469   0.396
 2559SOL     OW12523   0.238   4.360   1.923
 2559SOL    HW112524   0.190   4.329   1.999
 2559SOL    HW212525   0.220   4.296   1.855
 2560SOL     OW12526   0.093   4.052   2.924
 2560SOL    HW112527   0.153   3.998   2.976
 2560SOL    HW212528   0.006   4.031   2.960
 2561SOL     OW12529   0.006   4.172   2.489
 2561SOL    HW112530   9.982   4.204   2.577
 2561SOL    HW212531   0.070   4.104   2.506
 2562SOL     OW12532   0.604   5.061   2.990
 2562SOL    HW112533   0.510   5.057   2.971
 2562SOL    HW212534   0.619   5.151   3.021
 2563SOL     OW12535   1.618   5.295   2.600
 2563SOL    HW112536   1.566   5.260   2.672
 2563SOL    HW212537   1.560   5.292   2.524
 2564SOL     OW12538   1.780   4.303   2.088
 2564SOL    HW112539   1.746   4.289   2.000
 2564SOL    HW212540   1.721   4.253   2.144
 2565SOL     OW12541   0.854   4.953   2.943
 2565SOL    HW112542   0.762   4.974   2.963
 2565SOL    HW212543   0.850   4.895   2.867
 2566SOL     OW12544   0.875   4.450   3.682
 2566SOL    HW112545   0.839   4.517   3.741
 2566SOL    HW212546   0.908   4.499   3.607
 2567SOL     OW12547   0.687   4.877   3.693
 2567SOL    HW112548   0.708   4.947   3.754
 2567SOL    HW212549   0.625   4.916   3.632
 2568SOL     OW12550   0.341   5.159   2.923
 2568SOL    HW112551   0.252   5.156   2.887
 2568SOL    HW212552   0.395   5.191   2.851
 2569SOL     OW12553   1.412   5.155   3.240
 2569SOL    HW112554   1.370   5.216   3.301
 2569SOL    HW212555   1.368   5.072   3.256
 2570SOL     OW12556   0.468   4.060   3.283
 2570SOL    HW112557   0.537   4.003   3.316
 2570SOL    HW212558   0.390   4.036   3.333
 2571SOL     OW12559   1.619   4.250   2.501
 2571SOL    HW112560   1.540   4.206   2.531
 2571SOL    HW212561   1.604   4.343   2.519
 2572SOL     OW12562   0.279   5.489   2.300
 2572SOL    HW112563   0.296   5.533   2.384
 2572SOL    HW212564   0.357   5.508   2.247
 2573SOL     OW12565   1.135   5.071   3.575
 2573SOL    HW112566   1.168   5.051   3.662
 2573SOL    HW212567   1.078   4.997   3.553
 2574SOL     OW12568   0.235   5.124   2.378
 2574SOL    HW112569   0.324   5.122   2.412
 2574SOL    HW212570   0.185   5.070   2.439
 2575SOL     OW12571   0.186   4.763   2.735
 2575SOL    HW112572   0.240   4.690   2.764
 2575SOL    HW212573   0.153   4.802   2.816
 2576SOL     OW12574   0.628   5.447   3.341
 2576SOL    HW112575   0.570   5.372   3.356
 2576SOL    HW212576   0.574   5.523   3.358
 2577SOL     OW12577   0.643   4.703   2.027
 2577SOL    HW112578   0.683   4.759   1.960
 2577SOL    HW212579   0.674   4.739   2.110
 2578SOL     OW12580   0.130   4.385   2.377
 2578SOL    HW112581   0.092   4.305   2.413
 2578SOL    HW212582   0.123   4.449   2.449
 2579SOL     OW12583   1.943   5.422   2.257
 2579SOL    HW112584   1.860   5.412   2.304
 2579SOL    HW212585   1.933   5.504   2.208
 2580SOL     OW12586   0.026   5.307   2.050
 2580SOL    HW112587   9.970   5.229   2.047
 2580SOL    HW212588   0.011   5.350   1.966
 2581SOL     OW12589   1.741   4.688   2.508
 2581SOL    HW112590   1.674   4.627   2.475
 2581SOL    HW212591   1.736   4.763   2.449
 2582SOL     OW12592   1.676   4.883   2.298
 2582SOL    HW112593   1.733   4.953   2.330
 2582SOL    HW212594   1.589   4.905   2.331
 2583SOL     OW12595   0.202   4.505   3.473
 2583SOL    HW112596   0.297   4.500   3.481
 2583SOL    HW212597   0.185   4.506   3.379
 2584SOL     OW12598   1.262   4.934   3.286
 2584SOL    HW112599   1.241   4.863   3.225
 2584SOL    HW212600   1.318   4.892   3.352
 2585SOL     OW12601   0.140   4.671   3.173
 2585SOL    HW112602   0.219   4.623   3.149
 2585SOL    HW212603   0.120   4.725   3.096
 2586SOL     OW12604   1.576   4.754   2.071
 2586SOL    HW112605   1.502   4.701   2.100
 2586SOL    HW212606   1.610   4.794   2.152
 2587SOL     OW12607   1.315   5.582   3.483
 2587SOL    HW112608   1.259   5.627   3.420
 2587SOL    HW212609   1.293   5.490   3.473
 2588SOL     OW12610   0.360   4.001   3.659
 2588SOL    HW112611   0.380   4.095   3.650
 2588SOL    HW212612   0.268   3.998   3.683
 2589SOL     OW12613   1.444   5.198   2.782
 2589SOL    HW112614   1.380   5.191   2.852
 2589SOL    HW212615   1.402   5.154   2.707
 2590SOL     OW12616   1.699   5.458   2.394
 2590SOL    HW112617   1.618   5.436   2.349
 2590SOL    HW212618   1.689   5.420   2.481
 2591SOL     OW12619   0.605   4.439   2.099
 2591SOL    HW112620   0.617   4.529   2.069
 2591SOL    HW212621   0.535   4.444   2.164
 2592SOL     OW12622   1.336   4.043   2.810
 2592SOL    HW112623   1.253   4.033   2.857
 2592SOL    HW212624   1.402   4.053   2.879
 2593SOL     OW12625   1.668   5.401   1.978
 2593SOL    HW112626   1.645   5.464   2.047
 2593SOL    HW212627   1.589   5.396   1.923
 2594SOL     OW12628   0.797   4.234   3.277
 2594SOL    HW112629   0.758   4.245   3.364
 2594SOL    HW212630   0.822   4.322   3.250
 2595SOL     OW12631   1.432   4.140   3.574
 2595SOL    HW112632   1.340   4.154   3.550
 2595SOL    HW212633   1.462   4.070   3.516
 2596SOL     OW12634   0.968   4.589   3.462
 2596SOL    HW112635   1.036   4.542   3.414
 2596SOL    HW212636   0.908   4.621   3.395
 2597SOL     OW12637   1.012   4.152   3.124
 2597SOL    HW112638   0.938   4.177   3.180
 2597SOL    HW212639   0.972   4.111   3.048
 2598SOL     OW12640   1.026   4.355   2.352
 2598SOL    HW112641   0.979   4.312   2.424
 2598SOL    HW212642   0.964   4.354   2.279
 2599SOL     OW12643   0.093   4.545   2.596
 2599SOL    HW112644   0.128   4.490   2.666
 2599SOL    HW212645   0.109   4.635   2.625
 2600SOL     OW12646   0.184   5.567   3.422
 2600SOL    HW112647   0.193   5.518   3.504
 2600SOL    HW212648   0.157   5.502   3.358
 2601SOL     OW12649   0.877   4.074   2.063
 2601SOL    HW112650   0.876   4.045   1.972
 2601SOL    HW212651   0.880   3.993   2.114
 2602SOL     OW12652   1.716   4.304   3.649
 2602SOL    HW112653   1.727   4.380   3.592
 2602SOL    HW212654   1.637   4.261   3.617
 2603SOL     OW12655   1.011   5.201   2.369
 2603SOL    HW112656   1.000   5.263   2.297
 2603SOL    HW212657   1.069   5.133   2.333
 2604SOL     OW12658   0.325   5.476   2.811
 2604SOL    HW112659   0.346   5.391   2.771
 2604SOL    HW212660   0.399   5.532   2.788
 2605SOL     OW12661   1.834   4.829   2.738
 2605SOL    HW112662   1.783   4.785   2.670
 2605SOL    HW212663   1.771   4.841   2.810
 2606SOL     OW12664   1.243   5.286   3.414
 2606SOL    HW112665   1.219   5.221   3.480
 2606SOL    HW212666   1.169   5.285   3.353
 2607SOL     OW12667   0.325   4.654   2.050
 2607SOL    HW112668   0.355   4.700   2.128
 2607SOL    HW212669   0.343   4.561   2.068
 2608SOL     OW12670   1.429   4.449   2.599
 2608SOL    HW112671   1.391   4.361   2.597
 2608SOL    HW212672   1.405   4.484   2.684
 2609SOL     OW12673   1.146   5.486   2.077
 2609SOL    HW112674   1.066   5.467   2.125
 2609SOL    HW212675   1.165   5.406   2.028
 2610SOL     OW12676   0.202   4.006   3.364
 2610SOL    HW112677   0.112   4.028   3.339
 2610SOL    HW212678   0.193   3.923   3.411
 2611SOL     OW12679   1.685   5.089   1.876
 2611SOL    HW112680   1.658   5.180   1.885
 2611SOL    HW212681   1.605   5.039   1.890
 2612SOL     OW12682   0.571   5.548   2.171
 2612SOL    HW112683   0.574   5.587   2.258
 2612SOL    HW212684   0.584   5.454   2.187
 2613SOL     OW12685   1.473   3.875   2.317
 2613SOL    HW112686   1.439   3.854   2.230
 2613SOL    HW212687   1.408   3.841   2.378
 2614SOL     OW12688   0.280   5.512   3.077
 2614SOL    HW112689   0.326   5.438   3.119
 2614SOL    HW212690   0.289   5.496   2.984
 2615SOL     OW12691   0.962   5.380   2.795
 2615SOL    HW112692   1.040   5.347   2.751
 2615SOL    HW212693   0.950   5.321   2.870
 2616SOL     OW12694   0.380   4.415   2.260
 2616SOL    HW112695   0.419   4.334   2.290
 2616SOL    HW212696   0.294   4.417   2.300
 2617SOL     OW12697   1.586   3.922   3.693
 2617SOL    HW112698   1.507   3.949   3.739
 2617SOL    HW212699   1.555   3.882   3.612
 2618SOL     OW12700   0.709   3.808   1.992
 2618SOL    HW112701   0.776   3.808   2.061
 2618SOL    HW212702   0.689   3.716   1.978
 2619SOL     OW12703   0.765   4.003   3.618
 2619SOL    HW112704   0.847   3.955   3.612
 2619SOL    HW212705   0.716   3.959   3.688
 2620SOL     OW12706   0.927   5.216   3.015
 2620SOL    HW112707   0.897   5.130   2.985
 2620SOL    HW212708   0.986   5.197   3.088
 2621SOL     OW12709   0.968   4.255   2.757
 2621SOL    HW112710   0.937   4.229   2.670
 2621SOL    HW212711   0.952   4.178   2.812
 2622SOL     OW12712   0.540   3.789   2.367
 2622SOL    HW112713   0.473   3.813   2.431
 2622SOL    HW212714   0.595   3.868   2.359
 2623SOL     OW12715   1.456   4.946   1.912
 2623SOL    HW112716   1.487   4.873   1.967
 2623SOL    HW212717   1.371   4.970   1.950
 2624SOL     OW12718   0.379   3.811   2.027
 2624SOL    HW112719   0.436   3.869   2.077
 2624SOL    HW212720   0.389   3.726   2.069
 2625SOL     OW12721   0.991   3.987   2.378
 2625SOL    HW112722   0.928   3.952   2.314
 2625SOL    HW212723   1.065   3.927   2.374
 2626SOL     OW12724   1.138   4.418   3.306
 2626SOL    HW112725   1.049   4.414   3.271
 2626SOL    HW212726   1.188   4.463   3.238
 2627SOL     OW12727   1.180   5.306   2.645
 2627SOL    HW112728   1.214   5.375   2.588
 2627SOL    HW212729   1.219   5.226   2.612
 2628SOL     OW12730   1.279   5.533   2.506
 2628SOL    HW112731   1.313   5.592   2.438
 2628SOL    HW212732   1.193   5.569   2.528
 2629SOL     OW12733   1.085   4.251   1.864
 2629SOL    HW112734   1.020   4.322   1.859
 2629SOL    HW212735   1.099   4.237   1.957
 2630SOL     OW12736   0.142   4.340   3.243
 2630SOL    HW112737   0.087   4.327   3.166
 2630SOL    HW212738   0.229   4.314   3.215
 2631SOL     OW12739   0.858   4.184   2.516
 2631SOL    HW112740   0.766   4.161   2.530
 2631SOL    HW212741   0.895   4.109   2.469
 2632SOL     OW12742   0.939   3.738   2.692
 2632SOL    HW112743   0.983   3.812   2.650
 2632SOL    HW212744   0.865   3.776   2.738
 2633SOL     OW12745   1.931   4.506   2.218
 2633SOL    HW112746   1.939   4.465   2.304
 2633SOL    HW212747   1.869   4.451   2.170
 2634SOL     OW12748   0.511   5.188   2.001
 2634SOL    HW112749   0.424   5.181   2.040
 2634SOL    HW212750   0.505   5.138   1.920
 2635SOL     OW12751   1.741   5.072   2.490
 2635SOL    HW112752   1.733   5.153   2.539
 2635SOL    HW212753   1.651   5.044   2.474
 2636SOL     OW12754   1.401   4.265   1.935
 2636SOL    HW112755   1.328   4.266   1.997
 2636SOL    HW212756   1.450   4.186   1.957
 2637SOL     OW12757   0.556   4.000   2.135
 2637SOL    HW112758   0.625   3.947   2.095
 2637SOL    HW212759   0.544   4.073   2.074
 2638SOL     OW12760   1.718   4.925   3.381
 2638SOL    HW112761   1.756   4.839   3.360
 2638SOL    HW212762   1.635   4.906   3.423
 2639SOL     OW12763   1.043   5.133   3.255
 2639SOL    HW112764   0.961   5.089   3.277
 2639SOL    HW212765   1.110   5.066   3.266
 2640SOL     OW12766   1.649   5.320   3.588
 2640SOL    HW112767   1.611   5.308   3.500
 2640SOL    HW212768   1.744   5.320   3.573
 2641SOL     OW12769   1.131   4.967   2.976
 2641SOL    HW112770   1.161   4.888   3.021
 2641SOL    HW212771   1.037   4.954   2.965
 2642SOL     OW12772   1.679   4.878   2.957
 2642SOL    HW112773   1.667   4.941   3.029
 2642SOL    HW212774   1.611   4.812   2.972
 2643SOL     OW12775   0.933   3.817   3.273
 2643SOL    HW112776   0.955   3.823   3.180
 2643SOL    HW212777   0.997   3.873   3.316
 2644SOL     OW12778   0.977   4.831   3.600
 2644SOL    HW112779   0.885   4.847   3.621
 2644SOL    HW212780   0.975   4.754   3.543
 2645SOL     OW12781   0.720   4.804   2.275
 2645SOL    HW112782   0.639   4.839   2.313
 2645SOL    HW212783   0.776   4.788   2.351
 2646SOL     OW12784   0.377   4.537   3.104
 2646SOL    HW112785   0.456   4.570   3.147
 2646SOL    HW212786   0.384   4.441   3.111
 2647SOL     OW12787   1.250   4.177   3.229
 2647SOL    HW112788   1.222   4.254   3.278
 2647SOL    HW212789   1.176   4.157   3.171
 2648SOL     OW12790   0.111   5.331   3.227
 2648SOL    HW112791   0.107   5.396   3.158
 2648SOL    HW212792   0.202   5.302   3.228
 2649SOL     OW12793   0.333   4.800   2.294
 2649SOL    HW112794   0.398   4.861   2.331
 2649SOL    HW212795   0.320   4.736   2.363
 2650SOL     OW12796   1.278   5.194   3.000
 2650SOL    HW112797   1.323   5.176   3.083
 2650SOL    HW212798   1.221   5.118   2.987
 2651SOL     OW12799   1.538   4.557   2.374
 2651SOL    HW112800   1.488   4.519   2.446
 2651SOL    HW212801   1.472   4.575   2.306
 2652SOL     OW12802   0.377   5.274   3.180
 2652SOL    HW112803   0.380   5.223   3.100
 2652SOL    HW212804   0.436   5.229   3.241
 2653SOL     OW12805   0.484   4.482   3.478
 2653SOL    HW112806   0.525   4.512   3.397
 2653SOL    HW212807   0.535   4.405   3.504
 2654SOL     OW12808   0.982   3.836   3.593
 2654SOL    HW112809   1.046   3.859   3.526
 2654SOL    HW212810   0.981   3.740   3.594
 2655SOL     OW12811   0.514   3.776   3.640
 2655SOL    HW112812   0.460   3.717   3.587
 2655SOL    HW212813   0.460   3.855   3.649
 2656SOL     OW12814   1.351   4.553   2.841
 2656SOL    HW112815   1.296   4.522   2.913
 2656SOL    HW212816   1.410   4.617   2.881
 2657SOL     OW12817   1.211   4.271   2.136
 2657SOL    HW112818   1.236   4.201   2.196
 2657SOL    HW212819   1.151   4.326   2.186
 2658SOL     OW12820   0.257   3.919   3.093
 2658SOL    HW112821   0.255   3.937   3.187
 2658SOL    HW212822   0.249   3.824   3.086
 2659SOL     OW12823   9.991   5.081   3.179
 2659SOL    HW112824   0.027   5.019   3.243
 2659SOL    HW212825   0.032   5.164   3.201
 2660SOL     OW12826   1.725   4.685   3.681
 2660SOL    HW112827   1.677   4.642   3.611
 2660SOL    HW212828   1.660   4.704   3.749
 2661SOL     OW12829   0.278   3.815   2.510
 2661SOL    HW112830   0.244   3.890   2.559
 2661SOL    HW212831   0.309   3.754   2.577
 2662SOL     OW12832   1.595   4.127   2.249
 2662SOL    HW112833   1.542   4.054   2.280
 2662SOL    HW212834   1.603   4.185   2.325
 2663SOL     OW12835   1.010   5.345   3.596
 2663SOL    HW112836   0.977   5.383   3.515
 2663SOL    HW212837   0.989   5.252   3.591
 2664SOL     OW12838   1.924   5.316   3.524
 2664SOL    HW112839   1.929   5.306   3.429
 2664SOL    HW212840   2.014   5.304   3.555
 2665SOL     OW12841   0.391   4.689   3.655
 2665SOL    HW112842   0.450   4.684   3.730
 2665SOL    HW212843   0.423   4.622   3.595
 2666SOL     OW12844   1.543   4.024   2.000
 2666SOL    HW112845   1.491   3.948   2.026
 2666SOL    HW212846   1.572   4.063   2.083
 2667SOL     OW12847   1.327   4.539   1.917
 2667SOL    HW112848   1.341   4.445   1.929
 2667SOL    HW212849   1.348   4.555   1.825
 2668SOL     OW12850   0.277   4.505   2.837
 2668SOL    HW112851   0.310   4.529   2.923
 2668SOL    HW212852   0.283   4.409   2.834
 2669SOL     OW12853   0.303   4.219   2.869
 2669SOL    HW112854   0.221   4.171   2.877
 2669SOL    HW212855   0.355   4.168   2.808
 2670SOL     OW12856   1.168   4.210   3.523
 2670SOL    HW112857   1.109   4.210   3.598
 2670SOL    HW212858   1.143   4.288   3.472
 2671SOL     OW12859   1.137   3.965   3.389
 2671SOL    HW112860   1.138   4.035   3.455
 2671SOL    HW212861   1.178   4.004   3.312
 2672SOL     OW12862   9.882   5.081   2.081
 2672SOL    HW112863   9.790   5.081   2.104
 2672SOL    HW212864   9.913   4.994   2.108
 2673SOL     OW12865   0.083   5.608   2.751
 2673SOL    HW112866   0.009   5.566   2.709
 2673SOL    HW212867   0.139   5.535   2.778
 2674SOL     OW12868   0.464   5.261   2.699
 2674SOL    HW112869   0.549   5.305   2.694
 2674SOL    HW212870   0.459   5.211   2.618
 2675SOL     OW12871   9.989   4.296   3.020
 2675SOL    HW112872   0.027   4.214   2.988
 2675SOL    HW212873   9.900   4.272   3.047
 2676SOL     OW12874   0.152   4.233   3.538
 2676SOL    HW112875   0.173   4.171   3.468
 2676SOL    HW212876   0.149   4.318   3.494
 2677SOL     OW12877   0.864   4.344   2.135
 2677SOL    HW112878   0.867   4.251   2.111
 2677SOL    HW212879   0.772   4.369   2.121
 2678SOL     OW12880   0.904   5.402   3.350
 2678SOL    HW112881   0.915   5.324   3.296
 2678SOL    HW212882   0.812   5.425   3.341
 2679SOL     OW12883   0.476   4.220   1.989
 2679SOL    HW112884   0.536   4.286   2.022
 2679SOL    HW212885   0.398   4.269   1.962
 2680SOL     OW12886   0.097   4.888   3.344
 2680SOL    HW112887   0.118   4.862   3.433
 2680SOL    HW212888   0.114   4.810   3.291
 2681SOL     OW12889   1.481   4.706   3.035
 2681SOL    HW112890   1.533   4.643   3.084
 2681SOL    HW212891   1.395   4.703   3.076
 2682SOL     OW12892   1.344   4.642   2.180
 2682SOL    HW112893   1.266   4.693   2.202
 2682SOL    HW212894   1.321   4.596   2.100
 2683SOL     OW12895   1.841   5.418   3.036
 2683SOL    HW112896   1.870   5.466   2.958
 2683SOL    HW212897   1.780   5.353   3.003
 2684SOL     OW12898   1.245   5.469   3.013
 2684SOL    HW112899   1.305   5.486   2.940
 2684SOL    HW212900   1.243   5.374   3.021
 2685SOL     OW12901   0.082   4.861   2.974
 2685SOL    HW112902   0.108   4.945   3.011
 2685SOL    HW212903   9.987   4.866   2.966
 2686SOL     OW12904   0.659   5.400   3.624
 2686SOL    HW112905   0.565   5.382   3.626
 2686SOL    HW212906   0.674   5.437   3.537
 2687SOL     OW12907   1.736   3.860   2.408
 2687SOL    HW112908   1.647   3.882   2.381
 2687SOL    HW212909   1.729   3.770   2.440
 2688SOL     OW12910   1.448   5.308   2.389
 2688SOL    HW112911   1.423   5.217   2.401
 2688SOL    HW212912   1.367   5.357   2.402
 2689SOL     OW12913   0.784   5.045   3.327
 2689SOL    HW112914   0.796   5.073   3.418
 2689SOL    HW212915   0.694   5.071   3.306
 2690SOL     OW12916   0.735   5.350   1.976
 2690SOL    HW112917   0.728   5.386   1.887
 2690SOL    HW212918   0.652   5.304   1.989
 2691SOL     OW12919   1.790   5.578   3.262
 2691SOL    HW112920   1.777   5.516   3.191
 2691SOL    HW212921   1.703   5.614   3.279
 2692SOL     OW12922   1.880   3.878   2.721
 2692SOL    HW112923   1.887   3.783   2.732
 2692SOL    HW212924   1.786   3.896   2.722
 2693SOL     OW12925   0.190   4.032   2.643
 2693SOL    HW112926   0.146   4.046   2.727
 2693SOL    HW212927   0.283   4.047   2.661
 2694SOL     OW12928   1.209   5.268   1.918
 2694SOL    HW112929   1.200   5.181   1.957
 2694SOL    HW212930   1.139   5.273   1.854
 2695SOL     OW12931   0.816   4.759   3.293
 2695SOL    HW112932   0.869   4.754   3.213
 2695SOL    HW212933   0.798   4.853   3.304
 2696SOL     OW12934   0.973   4.610   2.079
 2696SOL    HW112935   1.007   4.663   2.151
 2696SOL    HW212936   0.938   4.532   2.122
 2697SOL     OW12937   1.450   5.359   1.807
 2697SOL    HW112938   1.384   5.310   1.856
 2697SOL    HW212939   1.399   5.423   1.756
 2698SOL     OW12940   1.659   5.070   3.164
 2698SOL    HW112941   1.677   5.020   3.244
 2698SOL    HW212942   1.573   5.108   3.179
 2699SOL     OW12943   0.592   5.281   2.260
 2699SOL    HW112944   0.576   5.236   2.177
 2699SOL    HW212945   0.535   5.237   2.323
 2700SOL     OW12946   1.825   4.100   3.242
 2700SOL    HW112947   1.808   4.185   3.202
 2700SOL    HW212948   1.772   4.038   3.192
 2701SOL     OW12949   0.256   5.159   2.104
 2701SOL    HW112950   0.183   5.219   2.090
 2701SOL    HW212951   0.253   5.139   2.198
 2702SOL     OW12952   0.162   4.839   3.611
 2702SOL    HW112953   0.100   4.773   3.641
 2702SOL    HW212954   0.248   4.799   3.623
 2703SOL     OW12955   0.683   3.902   3.365
 2703SOL    HW112956   0.769   3.877   3.329
 2703SOL    HW212957   0.704   3.940   3.450
 2704SOL     OW12958   0.024   3.940   1.793
 2704SOL    HW112959   9.955   3.925   1.857
 2704SOL    HW212960   0.065   4.022   1.821
 2705SOL     OW12961   0.096   3.861   2.156
 2705SOL    HW112962   0.137   3.930   2.209
 2705SOL    HW212963   0.098   3.784   2.213
 2706SOL     OW12964   1.203   5.002   2.003
 2706SOL    HW112965   1.169   4.916   1.977
 2706SOL    HW212966   1.189   5.006   2.098
 2707SOL     OW12967   0.620   4.561   3.246
 2707SOL    HW112968   0.679   4.631   3.272
 2707SOL    HW212969   0.670   4.509   3.184
 2708SOL     OW12970   1.415   5.500   2.798
 2708SOL    HW112971   1.381   5.522   2.711
 2708SOL    HW212972   1.436   5.407   2.793
 2709SOL     OW12973   0.704   4.271   3.540
 2709SOL    HW112974   0.759   4.325   3.596
 2709SOL    HW212975   0.719   4.181   3.570
 2710SOL     OW12976   1.467   4.849   3.475
 2710SOL    HW112977   1.452   4.877   3.566
 2710SOL    HW212978   1.480   4.754   3.480
 2711SOL     OW12979   1.245   4.084   2.338
 2711SOL    HW112980   1.253   3.990   2.328
 2711SOL    HW212981   1.151   4.099   2.352
 2712SOL     OW12982   0.791   4.545   2.563
 2712SOL    HW112983   0.795   4.639   2.545
 2712SOL    HW212984   0.720   4.513   2.507
 2713SOL     OW12985   1.800   3.994   3.498
 2713SOL    HW112986   1.797   4.032   3.410
 2713SOL    HW212987   1.711   3.960   3.512
 2714SOL     OW12988   1.812   4.684   3.297
 2714SOL    HW112989   1.783   4.630   3.371
 2714SOL    HW212990   1.767   4.646   3.221
 2715SOL     OW12991   0.871   5.118   1.916
 2715SOL    HW112992   0.893   5.064   1.992
 2715SOL    HW212993   0.831   5.197   1.953
 2716SOL     OW12994   0.704   5.403   2.685
 2716SOL    HW112995   0.658   5.484   2.711
 2716SOL    HW212996   0.783   5.403   2.738
 2717SOL     OW12997   1.145   4.750   1.917
 2717SOL    HW112998   1.070   4.715   1.964
 2717SOL    HW212999   1.206   4.677   1.911
 2718SOL     OW13000   1.860   5.290   2.725
 2718SOL    HW113001   1.783   5.305   2.671
 2718SOL    HW213002   1.828   5.240   2.800
 2719SOL     OW13003   0.090   4.964   2.560
 2719SOL    HW113004   9.999   4.938   2.548
 2719SOL    HW213005   0.128   4.894   2.613
 2720SOL     OW13006   0.787   5.157   3.589
 2720SOL    HW113007   0.700   5.118   3.576
 2720SOL    HW213008   0.770   5.250   3.599
 2721SOL     OW13009   1.924   3.829   3.139
 2721SOL    HW113010   1.924   3.811   3.233
 2721SOL    HW213011   1.833   3.855   3.120
 2722SOL     OW13012   0.475   4.170   2.342
 2722SOL    HW113013   0.518   4.110   2.282
 2722SOL    HW213014   0.517   4.154   2.426
 2723SOL     OW13015   1.688   5.212   2.929
 2723SOL    HW113016   1.606   5.198   2.882
 2723SOL    HW213017   1.681   5.156   3.006
 2724SOL     OW13018   0.392   4.263   3.122
 2724SOL    HW113019   0.404   4.185   3.177
 2724SOL    HW213020   0.353   4.230   3.041
 2725SOL     OW13021   1.029   3.836   3.019
 2725SOL    HW113022   0.973   3.896   2.970
 2725SOL    HW213023   1.032   3.757   2.964
 2726SOL     OW13024   0.902   4.969   2.140
 2726SOL    HW113025   0.842   4.905   2.180
 2726SOL    HW213026   0.987   4.950   2.181
 2727SOL     OW13027   0.671   5.317   3.074
 2727SOL    HW113028   0.660   5.360   3.159
 2727SOL    HW213029   0.764   5.299   3.068
 2728SOL     OW13030   1.398   3.793   2.053
 2728SOL    HW113031   1.377   3.784   1.960
 2728SOL    HW213032   1.331   3.741   2.097
 2729SOL     OW13033   1.367   4.180   2.572
 2729SOL    HW113034   1.314   4.146   2.500
 2729SOL    HW213035   1.338   4.129   2.648
 2730SOL     OW13036   1.610   3.932   2.758
 2730SOL    HW113037   1.602   3.980   2.841
 2730SOL    HW213038   1.528   3.949   2.713
 2731SOL     OW13039   0.091   4.829   2.151
 2731SOL    HW113040   0.173   4.840   2.199
 2731SOL    HW213041   0.028   4.801   2.218
 2732SOL     OW13042   0.910   5.409   2.201
 2732SOL    HW113043   0.842   5.394   2.135
 2732SOL    HW213044   0.873   5.474   2.260
 2733SOL     OW13045   0.269   4.331   3.776
 2733SOL    HW113046   0.205   4.359   3.842
 2733SOL    HW213047   0.216   4.311   3.699
 2734SOL     OW13048   0.248   4.001   4.724
 2734SOL    HW113049   0.264   3.979   4.816
 2734SOL    HW213050   0.161   3.964   4.706
 2735SOL     OW13051   0.078   4.140   4.334
 2735SOL    HW113052   9.983   4.132   4.323
 2735SOL    HW213053   0.113   4.065   4.287
 2736SOL     OW13054   0.513   4.965   4.886
 2736SOL    HW113055   0.467   4.914   4.952
 2736SOL    HW213056   0.445   5.021   4.848
 2737SOL     OW13057   1.556   5.240   4.418
 2737SOL    HW113058   1.509   5.215   4.497
 2737SOL    HW213059   1.487   5.249   4.351
 2738SOL     OW13060   1.145   4.407   4.403
 2738SOL    HW113061   1.139   4.489   4.452
 2738SOL    HW213062   1.078   4.351   4.442
 2739SOL     OW13063   1.729   4.331   3.930
 2739SOL    HW113064   1.700   4.353   3.841
 2739SOL    HW213065   1.654   4.352   3.986
 2740SOL     OW13066   0.744   4.879   4.772
 2740SOL    HW113067   0.670   4.902   4.827
 2740SOL    HW213068   0.774   4.963   4.736
 2741SOL     OW13069   0.709   4.733   4.371
 2741SOL    HW113070   0.772   4.726   4.442
 2741SOL    HW213071   0.636   4.782   4.409
 2742SOL     OW13072   0.782   4.919   5.596
 2742SOL    HW113073   0.867   4.884   5.569
 2742SOL    HW213074   0.743   4.952   5.515
 2743SOL     OW13075   0.325   5.159   4.778
 2743SOL    HW113076   0.251   5.142   4.720
 2743SOL    HW213077   0.388   5.207   4.724
 2744SOL     OW13078   1.503   5.284   5.134
 2744SOL    HW113079   1.417   5.265   5.171
 2744SOL    HW213080   1.528   5.203   5.089
 2745SOL     OW13081   0.443   4.115   5.206
 2745SOL    HW113082   0.526   4.068   5.205
 2745SOL    HW213083   0.377   4.047   5.222
 2746SOL     OW13084   1.629   4.178   4.483
 2746SOL    HW113085   1.536   4.175   4.458
 2746SOL    HW213086   1.644   4.268   4.511
 2747SOL     OW13087   0.286   5.383   4.212
 2747SOL    HW113088   0.223   5.452   4.229
 2747SOL    HW213089   0.350   5.422   4.153
 2748SOL     OW13090   1.180   5.058   5.387
 2748SOL    HW113091   1.165   5.068   5.481
 2748SOL    HW213092   1.181   4.964   5.373
 2749SOL     OW13093   0.278   5.111   4.210
 2749SOL    HW113094   0.277   5.207   4.217
 2749SOL    HW213095   0.240   5.081   4.293
 2750SOL     OW13096   0.274   4.822   4.660
 2750SOL    HW113097   0.303   4.754   4.721
 2750SOL    HW213098   0.199   4.863   4.703
 2751SOL     OW13099   0.646   5.525   5.197
 2751SOL    HW113100   0.558   5.492   5.216
 2751SOL    HW213101   0.640   5.620   5.211
 2752SOL     OW13102   0.572   4.704   3.883
 2752SOL    HW113103   0.610   4.755   3.812
 2752SOL    HW213104   0.614   4.737   3.962
 2753SOL     OW13105   1.590   3.957   5.202
 2753SOL    HW113106   1.521   3.932   5.141
 2753SOL    HW213107   1.549   3.953   5.288
 2754SOL     OW13108   0.155   4.400   4.277
 2754SOL    HW113109   0.129   4.311   4.301
 2754SOL    HW213110   0.131   4.453   4.353
 2755SOL     OW13111   1.709   4.651   4.370
 2755SOL    HW113112   1.635   4.591   4.382
 2755SOL    HW213113   1.686   4.701   4.292
 2756SOL     OW13114   1.662   4.825   4.151
 2756SOL    HW113115   1.741   4.818   4.097
 2756SOL    HW213116   1.678   4.902   4.206
 2757SOL     OW13117   0.626   5.104   4.478
 2757SOL    HW113118   0.578   5.022   4.478
 2757SOL    HW213119   0.618   5.137   4.388
 2758SOL     OW13120   1.407   4.995   5.067
 2758SOL    HW113121   1.373   4.913   5.033
 2758SOL    HW213122   1.413   4.982   5.161
 2759SOL     OW13123   0.788   3.845   4.277
 2759SOL    HW113124   0.710   3.894   4.252
 2759SOL    HW213125   0.755   3.763   4.313
 2760SOL     OW13126   1.541   4.731   3.913
 2760SOL    HW113127   1.476   4.666   3.937
 2760SOL    HW213128   1.575   4.763   3.996
 2761SOL     OW13129   0.309   4.009   5.551
 2761SOL    HW113130   0.324   4.092   5.506
 2761SOL    HW213131   0.216   3.992   5.541
 2762SOL     OW13132   1.467   5.151   4.669
 2762SOL    HW113133   1.393   5.173   4.726
 2762SOL    HW213134   1.445   5.064   4.636
 2763SOL     OW13135   1.715   5.391   4.242
 2763SOL    HW113136   1.663   5.397   4.162
 2763SOL    HW213137   1.661   5.341   4.303
 2764SOL     OW13138   0.611   4.443   3.999
 2764SOL    HW113139   0.600   4.527   3.954
 2764SOL    HW213140   0.549   4.446   4.071
 2765SOL     OW13141   1.312   4.051   4.656
 2765SOL    HW113142   1.223   4.019   4.641
 2765SOL    HW213143   1.352   3.985   4.713
 2766SOL     OW13144   1.605   5.461   4.000
 2766SOL    HW113145   1.685   5.486   3.953
 2766SOL    HW213146   1.544   5.435   3.931
 2767SOL     OW13147   1.492   4.263   5.409
 2767SOL    HW113148   1.511   4.307   5.492
 2767SOL    HW213149   1.475   4.172   5.433
 2768SOL     OW13150   0.993   4.079   5.033
 2768SOL    HW113151   0.917   4.128   5.004
 2768SOL    HW213152   0.965   3.988   5.031
 2769SOL     OW13153   1.086   4.437   4.129
 2769SOL    HW113154   1.103   4.423   4.222
 2769SOL    HW213155   1.002   4.395   4.113
 2770SOL     OW13156   0.072   4.537   4.518
 2770SOL    HW113157   0.162   4.537   4.552
 2770SOL    HW213158   0.020   4.574   4.590
 2771SOL     OW13159   0.083   5.590   5.281
 2771SOL    HW113160   0.026   5.570   5.355
 2771SOL    HW213161   0.102   5.504   5.242
 2772SOL     OW13162   0.859   4.066   3.929
 2772SOL    HW113163   0.905   4.098   3.851
 2772SOL    HW213164   0.802   3.997   3.896
 2773SOL     OW13165   1.800   4.309   5.450
 2773SOL    HW113166   1.732   4.340   5.510
 2773SOL    HW213167   1.777   4.218   5.431
 2774SOL     OW13168   1.407   4.883   4.276
 2774SOL    HW113169   1.483   4.874   4.218
 2774SOL    HW213170   1.347   4.940   4.227
 2775SOL     OW13171   0.528   3.862   4.744
 2775SOL    HW113172   0.441   3.898   4.727
 2775SOL    HW213173   0.559   3.830   4.659
 2776SOL     OW13174   1.002   5.187   4.192
 2776SOL    HW113175   0.979   5.254   4.128
 2776SOL    HW213176   0.962   5.218   4.274
 2777SOL     OW13177   0.329   5.508   4.657
 2777SOL    HW113178   0.390   5.434   4.647
 2777SOL    HW213179   0.344   5.562   4.580
 2778SOL     OW13180   1.864   4.825   4.533
 2778SOL    HW113181   1.813   4.776   4.469
 2778SOL    HW213182   1.800   4.852   4.599
 2779SOL     OW13183   1.240   5.244   5.197
 2779SOL    HW113184   1.233   5.186   5.272
 2779SOL    HW213185   1.169   5.218   5.139
 2780SOL     OW13186   0.306   4.669   4.005
 2780SOL    HW113187   0.385   4.676   3.952
 2780SOL    HW213188   0.281   4.577   4.000
 2781SOL     OW13189   1.495   4.472   4.415
 2781SOL    HW113190   1.451   4.387   4.425
 2781SOL    HW213191   1.448   4.530   4.475
 2782SOL     OW13192   0.421   5.072   5.491
 2782SOL    HW113193   0.398   5.053   5.400
 2782SOL    HW213194   0.364   5.014   5.542
 2783SOL     OW13195   1.173   5.464   3.989
 2783SOL    HW113196   1.082   5.452   4.015
 2783SOL    HW213197   1.184   5.407   3.913
 2784SOL     OW13198   0.239   3.935   5.241
 2784SOL    HW113199   0.153   3.977   5.249
 2784SOL    HW213200   0.226   3.847   5.275
 2785SOL     OW13201   1.647   5.120   3.797
 2785SOL    HW113202   1.637   5.185   3.728
 2785SOL    HW213203   1.578   5.055   3.781
 2786SOL     OW13204   0.494   5.489   4.060
 2786SOL    HW113205   0.542   5.550   4.115
 2786SOL    HW213206   0.560   5.451   4.002
 2787SOL     OW13207   1.422   3.842   4.165
 2787SOL    HW113208   1.428   3.796   4.082
 2787SOL    HW213209   1.364   3.788   4.218
 2788SOL     OW13210   0.323   5.521   4.934
 2788SOL    HW113211   0.317   5.432   4.970
 2788SOL    HW213212   0.326   5.509   4.839
 2789SOL     OW13213   0.988   5.404   4.600
 2789SOL    HW113214   0.968   5.370   4.687
 2789SOL    HW213215   0.922   5.365   4.543
 2790SOL     OW13216   0.423   4.416   4.199
 2790SOL    HW113217   0.448   4.325   4.219
 2790SOL    HW213218   0.331   4.421   4.225
 2791SOL     OW13219   1.474   3.977   5.451
 2791SOL    HW113220   1.478   3.957   5.545
 2791SOL    HW213221   1.381   3.972   5.430
 2792SOL     OW13222   0.672   3.851   3.853
 2792SOL    HW113223   0.677   3.777   3.914
 2792SOL    HW213224   0.613   3.820   3.784
 2793SOL     OW13225   0.789   3.932   5.454
 2793SOL    HW113226   0.874   3.891   5.440
 2793SOL    HW213227   0.751   3.884   5.527
 2794SOL     OW13228   0.936   5.299   4.850
 2794SOL    HW113229   0.877   5.239   4.805
 2794SOL    HW213230   0.966   5.251   4.927
 2795SOL     OW13231   1.453   4.345   5.147
 2795SOL    HW113232   1.463   4.319   5.239
 2795SOL    HW213233   1.377   4.297   5.116
 2796SOL     OW13234   0.830   5.121   4.665
 2796SOL    HW113235   0.914   5.108   4.620
 2796SOL    HW213236   0.765   5.120   4.595
 2797SOL     OW13237   0.996   4.248   4.596
 2797SOL    HW113238   0.948   4.230   4.515
 2797SOL    HW213239   0.998   4.164   4.642
 2798SOL     OW13240   0.475   3.790   4.278
 2798SOL    HW113241   0.537   3.734   4.324
 2798SOL    HW213242   0.486   3.767   4.185
 2799SOL     OW13243   1.438   4.932   3.748
 2799SOL    HW113244   1.465   4.857   3.801
 2799SOL    HW213245   1.352   4.956   3.781
 2800SOL     OW13246   0.331   3.767   3.893
 2800SOL    HW113247   0.343   3.858   3.920
 2800SOL    HW213248   0.400   3.720   3.939
 2801SOL     OW13249   0.987   4.000   4.165
 2801SOL    HW113250   0.946   4.020   4.080
 2801SOL    HW213251   0.930   3.935   4.204
 2802SOL     OW13252   0.957   4.368   5.163
 2802SOL    HW113253   0.905   4.391   5.241
 2802SOL    HW213254   0.925   4.281   5.139
 2803SOL     OW13255   1.241   5.319   4.533
 2803SOL    HW113256   1.262   5.385   4.466
 2803SOL    HW213257   1.157   5.347   4.568
 2804SOL     OW13258   0.484   4.865   4.465
 2804SOL    HW113259   0.425   4.846   4.538
 2804SOL    HW213260   0.433   4.847   4.386
 2805SOL     OW13261   1.276   5.520   4.348
 2805SOL    HW113262   1.321   5.574   4.283
 2805SOL    HW213263   1.198   5.570   4.372
 2806SOL     OW13264   1.016   4.224   3.752
 2806SOL    HW113265   0.966   4.305   3.739
 2806SOL    HW213266   1.082   4.247   3.818
 2807SOL     OW13267   0.098   4.428   5.166
 2807SOL    HW113268   0.164   4.371   5.127
 2807SOL    HW213269   0.148   4.491   5.218
 2808SOL     OW13270   0.919   4.213   4.335
 2808SOL    HW113271   0.862   4.257   4.273
 2808SOL    HW213272   0.948   4.133   4.290
 2809SOL     OW13273   0.996   3.718   4.420
 2809SOL    HW113274   0.940   3.786   4.383
 2809SOL    HW213275   0.946   3.638   4.410
 2810SOL     OW13276   1.430   4.898   4.560
 2810SOL    HW113277   1.358   4.838   4.583
 2810SOL    HW213278   1.430   4.900   4.465
 2811SOL     OW13279   1.394   4.276   4.802
 2811SOL    HW113280   1.367   4.210   4.739
 2811SOL    HW213281   1.343   4.257   4.881
 2812SOL     OW13282   1.931   4.496   4.035
 2812SOL    HW113283   1.951   4.453   4.118
 2812SOL    HW213284   1.860   4.444   3.997
 2813SOL     OW13285   0.546   5.123   3.837
 2813SOL    HW113286   0.460   5.102   3.872
 2813SOL    HW213287   0.538   5.111   3.743
 2814SOL     OW13288   1.723   5.033   4.310
 2814SOL    HW113289   1.816   5.049   4.327
 2814SOL    HW213290   1.678   5.104   4.354
 2815SOL     OW13291   1.450   4.291   3.801
 2815SOL    HW113292   1.370   4.283   3.852
 2815SOL    HW213293   1.435   4.236   3.724
 2816SOL     OW13294   0.538   3.992   4.051
 2816SOL    HW113295   0.587   3.940   3.988
 2816SOL    HW213296   0.515   4.072   4.005
 2817SOL     OW13297   1.035   5.129   5.051
 2817SOL    HW113298   0.950   5.117   5.094
 2817SOL    HW213299   1.059   5.042   5.022
 2818SOL     OW13300   1.682   5.321   5.350
 2818SOL    HW113301   1.627   5.309   5.272
 2818SOL    HW213302   1.622   5.352   5.418
 2819SOL     OW13303   1.107   4.935   4.836
 2819SOL    HW113304   1.021   4.893   4.842
 2819SOL    HW213305   1.104   4.985   4.754
 2820SOL     OW13306   1.668   4.892   4.721
 2820SOL    HW113307   1.638   4.911   4.810
 2820SOL    HW213308   1.588   4.888   4.669
 2821SOL     OW13309   0.731   4.785   4.097
 2821SOL    HW113310   0.720   4.763   4.189
 2821SOL    HW213311   0.813   4.743   4.072
 2822SOL     OW13312   1.259   4.178   5.024
 2822SOL    HW113313   1.286   4.087   5.040
 2822SOL    HW213314   1.163   4.174   5.023
 2823SOL     OW13315   0.101   5.339   5.174
 2823SOL    HW113316   0.018   5.292   5.169
 2823SOL    HW213317   0.161   5.288   5.120
 2824SOL     OW13318   0.336   4.833   4.230
 2824SOL    HW113319   0.332   4.919   4.187
 2824SOL    HW213320   0.329   4.770   4.158
 2825SOL     OW13321   0.565   4.288   4.601
 2825SOL    HW113322   0.573   4.362   4.541
 2825SOL    HW213323   0.549   4.212   4.544
 2826SOL     OW13324   1.246   5.066   4.138
 2826SOL    HW113325   1.296   5.144   4.164
 2826SOL    HW213326   1.155   5.088   4.161
 2827SOL     OW13327   1.299   5.191   4.892
 2827SOL    HW113328   1.333   5.128   4.955
 2827SOL    HW213329   1.207   5.166   4.880
 2828SOL     OW13330   1.531   4.384   4.127
 2828SOL    HW113331   1.525   4.416   4.216
 2828SOL    HW213332   1.463   4.431   4.079
 2829SOL     OW13333   0.336   5.256   5.035
 2829SOL    HW113334   0.318   5.212   4.952
 2829SOL    HW213335   0.431   5.255   5.042
 2830SOL     OW13336   1.043   3.816   5.425
 2830SOL    HW113337   1.066   3.778   5.341
 2830SOL    HW213338   1.054   3.745   5.488
 2831SOL     OW13339   0.479   3.794   5.537
 2831SOL    HW113340   0.469   3.745   5.455
 2831SOL    HW213341   0.426   3.873   5.524
 2832SOL     OW13342   0.552   4.651   4.756
 2832SOL    HW113343   0.599   4.735   4.750
 2832SOL    HW213344   0.476   4.670   4.810
 2833SOL     OW13345   1.322   4.549   4.739
 2833SOL    HW113346   1.228   4.539   4.720
 2833SOL    HW213347   1.352   4.461   4.760
 2834SOL     OW13348   1.212   4.271   3.947
 2834SOL    HW113349   1.222   4.193   4.002
 2834SOL    HW213350   1.171   4.336   4.004
 2835SOL     OW13351   0.298   3.915   4.975
 2835SOL    HW113352   0.276   3.929   5.067
 2835SOL    HW213353   0.295   3.820   4.963
 2836SOL     OW13354   0.029   5.056   5.022
 2836SOL    HW113355   0.050   4.979   5.075
 2836SOL    HW213356   9.975   5.110   5.079
 2837SOL     OW13357   0.697   4.425   4.808
 2837SOL    HW113358   0.669   4.370   4.735
 2837SOL    HW213359   0.649   4.507   4.795
 2838SOL     OW13360   0.297   3.734   4.490
 2838SOL    HW113361   0.367   3.755   4.428
 2838SOL    HW213362   0.219   3.728   4.436
 2839SOL     OW13363   1.606   4.098   4.105
 2839SOL    HW113364   1.554   4.033   4.152
 2839SOL    HW213365   1.573   4.182   4.138
 2840SOL     OW13366   1.047   4.504   4.702
 2840SOL    HW113367   1.010   4.514   4.790
 2840SOL    HW213368   1.021   4.415   4.676
 2841SOL     OW13369   1.013   5.288   5.445
 2841SOL    HW113370   0.982   5.355   5.385
 2841SOL    HW213371   1.035   5.214   5.388
 2842SOL     OW13372   1.936   5.197   5.335
 2842SOL    HW113373   1.917   5.118   5.284
 2842SOL    HW213374   1.851   5.239   5.346
 2843SOL     OW13375   0.405   4.520   5.667
 2843SOL    HW113376   0.349   4.583   5.711
 2843SOL    HW213377   0.369   4.514   5.578
 2844SOL     OW13378   1.423   4.007   3.893
 2844SOL    HW113379   1.389   3.918   3.890
 2844SOL    HW213380   1.367   4.052   3.957
 2845SOL     OW13381   1.363   4.548   3.718
 2845SOL    HW113382   1.397   4.461   3.737
 2845SOL    HW213383   1.408   4.574   3.637
 2846SOL     OW13384   1.099   5.082   4.596
 2846SOL    HW113385   1.101   5.008   4.535
 2846SOL    HW213386   1.157   5.147   4.557
 2847SOL     OW13387   0.323   4.517   4.632
 2847SOL    HW113388   0.407   4.560   4.646
 2847SOL    HW213389   0.322   4.443   4.693
 2848SOL     OW13390   0.340   4.262   4.763
 2848SOL    HW113391   0.309   4.174   4.740
 2848SOL    HW213392   0.420   4.273   4.711
 2849SOL     OW13393   1.220   4.017   5.351
 2849SOL    HW113394   1.155   3.953   5.381
 2849SOL    HW213395   1.169   4.094   5.326
 2850SOL     OW13396   1.321   3.917   5.106
 2850SOL    HW113397   1.293   3.951   5.191
 2850SOL    HW213398   1.267   3.838   5.093
 2851SOL     OW13399   0.004   5.035   3.878
 2851SOL    HW113400   9.931   5.023   3.818
 2851SOL    HW213401   0.013   4.950   3.922
 2852SOL     OW13402   0.066   5.420   4.673
 2852SOL    HW113403   0.079   5.332   4.637
 2852SOL    HW213404   0.153   5.459   4.675
 2853SOL     OW13405   0.514   5.308   4.631
 2853SOL    HW113406   0.586   5.370   4.643
 2853SOL    HW213407   0.552   5.236   4.581
 2854SOL     OW13408   0.919   4.538   4.948
 2854SOL    HW113409   0.941   4.486   5.025
 2854SOL    HW213410   0.839   4.498   4.914
 2855SOL     OW13411   0.059   4.301   4.811
 2855SOL    HW113412   0.152   4.301   4.785
 2855SOL    HW213413   0.059   4.337   4.900
 2856SOL     OW13414   0.273   4.234   5.395
 2856SOL    HW113415   0.328   4.212   5.321
 2856SOL    HW213416   0.280   4.329   5.404
 2857SOL     OW13417   1.436   4.693   5.398
 2857SOL    HW113418   1.346   4.725   5.407
 2857SOL    HW213419   1.440   4.660   5.308
 2858SOL     OW13420   0.847   4.311   4.073
 2858SOL    HW113421   0.840   4.228   4.026
 2858SOL    HW213422   0.767   4.358   4.050
 2859SOL     OW13423   1.635   4.277   4.950
 2859SOL    HW113424   1.589   4.310   5.027
 2859SOL    HW213425   1.567   4.273   4.882
 2860SOL     OW13426   0.250   5.294   5.483
 2860SOL    HW113427   0.165   5.251   5.475
 2860SOL    HW213428   0.312   5.221   5.492
 2861SOL     OW13429   0.762   4.217   4.978
 2861SOL    HW113430   0.690   4.156   4.968
 2861SOL    HW213431   0.740   4.290   4.920
 2862SOL     OW13432   0.912   5.476   5.262
 2862SOL    HW113433   0.827   5.491   5.221
 2862SOL    HW213434   0.971   5.538   5.220
 2863SOL     OW13435   0.468   4.217   3.914
 2863SOL    HW113436   0.529   4.286   3.941
 2863SOL    HW213437   0.405   4.261   3.857
 2864SOL     OW13438   0.106   4.806   5.110
 2864SOL    HW113439   0.145   4.758   5.184
 2864SOL    HW213440   0.176   4.812   5.045
 2865SOL     OW13441   1.324   4.768   4.919
 2865SOL    HW113442   1.329   4.695   4.857
 2865SOL    HW213443   1.247   4.817   4.894
 2866SOL     OW13444   1.337   4.550   4.006
 2866SOL    HW113445   1.251   4.536   4.045
 2866SOL    HW213446   1.321   4.554   3.912
 2867SOL     OW13447   1.701   5.481   4.921
 2867SOL    HW113448   1.631   5.517   4.869
 2867SOL    HW213449   1.701   5.387   4.900
 2868SOL     OW13450   0.051   4.933   4.773
 2868SOL    HW113451   0.064   4.970   4.861
 2868SOL    HW213452   9.976   4.982   4.738
 2869SOL     OW13453   0.714   5.409   5.473
 2869SOL    HW113454   0.639   5.466   5.458
 2869SOL    HW213455   0.779   5.436   5.409
 2870SOL     OW13456   1.838   3.859   4.241
 2870SOL    HW113457   1.855   3.829   4.152
 2870SOL    HW213458   1.779   3.793   4.277
 2871SOL     OW13459   1.377   5.305   4.207
 2871SOL    HW113460   1.368   5.336   4.116
 2871SOL    HW213461   1.330   5.370   4.259
 2872SOL     OW13462   0.127   5.512   5.597
 2872SOL    HW113463   0.040   5.507   5.556
 2872SOL    HW213464   0.175   5.437   5.562
 2873SOL     OW13465   1.279   4.667   4.382
 2873SOL    HW113466   1.291   4.592   4.323
 2873SOL    HW213467   1.322   4.739   4.336
 2874SOL     OW13468   0.789   5.068   5.154
 2874SOL    HW113469   0.751   5.074   5.241
 2874SOL    HW213470   0.794   4.973   5.137
 2875SOL     OW13471   0.682   5.358   3.893
 2875SOL    HW113472   0.688   5.377   3.799
 2875SOL    HW213473   0.640   5.273   3.898
 2876SOL     OW13474   1.916   3.894   4.648
 2876SOL    HW113475   1.938   3.804   4.626
 2876SOL    HW213476   1.822   3.900   4.635
 2877SOL     OW13477   0.323   4.102   4.476
 2877SOL    HW113478   0.239   4.121   4.434
 2877SOL    HW213479   0.300   4.053   4.555
 2878SOL     OW13480   1.218   5.307   3.770
 2878SOL    HW113481   1.208   5.214   3.790
 2878SOL    HW213482   1.148   5.326   3.707
 2879SOL     OW13483   0.863   4.792   5.118
 2879SOL    HW113484   0.882   4.725   5.053
 2879SOL    HW213485   0.851   4.744   5.200
 2880SOL     OW13486   0.967   4.670   4.019
 2880SOL    HW113487   1.021   4.686   3.942
 2880SOL    HW213488   1.005   4.593   4.060
 2881SOL     OW13489   1.465   5.425   3.769
 2881SOL    HW113490   1.383   5.378   3.757
 2881SOL    HW213491   1.521   5.393   3.698
 2882SOL     OW13492   0.361   5.041   5.230
 2882SOL    HW113493   0.340   5.107   5.164
 2882SOL    HW213494   0.369   4.959   5.181
 2883SOL     OW13495   1.672   5.005   4.994
 2883SOL    HW113496   1.736   4.990   5.063
 2883SOL    HW213497   1.588   4.986   5.035
 2884SOL     OW13498   1.088   4.848   4.463
 2884SOL    HW113499   1.010   4.805   4.496
 2884SOL    HW213500   1.143   4.777   4.428
 2885SOL     OW13501   1.074   3.916   4.644
 2885SOL    HW113502   1.045   3.849   4.583
 2885SOL    HW213503   1.082   3.871   4.728
 2886SOL     OW13504   0.627   5.224   4.226
 2886SOL    HW113505   0.667   5.170   4.158
 2886SOL    HW213506   0.544   5.252   4.189
 2887SOL     OW13507   1.800   4.092   5.085
 2887SOL    HW113508   1.747   4.162   5.047
 2887SOL    HW213509   1.736   4.029   5.119
 2888SOL     OW13510   0.281   5.076   3.937
 2888SOL    HW113511   0.189   5.052   3.923
 2888SOL    HW213512   0.287   5.094   4.031
 2889SOL     OW13513   0.087   4.780   5.497
 2889SOL    HW113514   0.010   4.831   5.469
 2889SOL    HW213515   0.123   4.746   5.415
 2890SOL     OW13516   0.658   3.940   5.205
 2890SOL    HW113517   0.732   3.921   5.148
 2890SOL    HW213518   0.694   3.944   5.293
 2891SOL     OW13519   0.091   4.048   3.733
 2891SOL    HW113520   0.004   4.008   3.729
 2891SOL    HW213521   0.090   4.115   3.664
 2892SOL     OW13522   1.466   4.626   5.135
 2892SOL    HW113523   1.416   4.663   5.063
 2892SOL    HW213524   1.455   4.531   5.125
 2893SOL     OW13525   0.058   3.802   4.000
 2893SOL    HW113526   0.120   3.874   3.997
 2893SOL    HW213527   0.111   3.726   4.025
 2894SOL     OW13528   1.191   5.040   3.853
 2894SOL    HW113529   1.095   5.040   3.847
 2894SOL    HW213530   1.209   5.032   3.947
 2895SOL     OW13531   1.486   5.546   4.762
 2895SOL    HW113532   1.506   5.621   4.706
 2895SOL    HW213533   1.443   5.483   4.704
 2896SOL     OW13534   1.482   4.959   5.330
 2896SOL    HW113535   1.452   5.004   5.408
 2896SOL    HW213536   1.474   4.866   5.351
 2897SOL     OW13537   0.387   5.430   5.283
 2897SOL    HW113538   0.356   5.394   5.200
 2897SOL    HW213539   0.335   5.385   5.350
 2898SOL     OW13540   1.252   4.056   4.110
 2898SOL    HW113541   1.305   3.984   4.144
 2898SOL    HW213542   1.163   4.035   4.136
 2899SOL     OW13543   0.587   4.485   4.414
 2899SOL    HW113544   0.630   4.568   4.393
 2899SOL    HW213545   0.527   4.470   4.341
 2900SOL     OW13546   1.747   4.037   5.431
 2900SOL    HW113547   1.732   4.011   5.340
 2900SOL    HW213548   1.666   4.015   5.476
 2901SOL     OW13549   0.923   5.087   3.824
 2901SOL    HW113550   0.856   5.091   3.893
 2901SOL    HW213551   0.876   5.110   3.744
 2902SOL     OW13552   0.704   5.511   4.646
 2902SOL    HW113553   0.665   5.596   4.624
 2902SOL    HW213554   0.793   5.531   4.674
 2903SOL     OW13555   0.883   4.717   4.591
 2903SOL    HW113556   0.923   4.641   4.633
 2903SOL    HW213557   0.831   4.758   4.660
 2904SOL     OW13558   1.130   4.691   3.797
 2904SOL    HW113559   1.087   4.746   3.731
 2904SOL    HW213560   1.201   4.649   3.749
 2905SOL     OW13561   1.762   5.322   4.594
 2905SOL    HW113562   1.694   5.294   4.533
 2905SOL    HW213563   1.738   5.280   4.677
 2906SOL     OW13564   0.248   4.935   5.655
 2906SOL    HW113565   0.194   4.874   5.606
 2906SOL    HW213566   0.281   4.883   5.729
 2907SOL     OW13567   0.187   4.952   4.431
 2907SOL    HW113568   0.206   4.902   4.511
 2907SOL    HW213569   0.215   4.894   4.360
 2908SOL     OW13570   0.687   5.125   5.411
 2908SOL    HW113571   0.595   5.107   5.428
 2908SOL    HW213572   0.696   5.219   5.431
 2909SOL     OW13573   1.734   3.828   4.954
 2909SOL    HW113574   1.727   3.778   5.036
 2909SOL    HW213575   1.679   3.780   4.892
 2910SOL     OW13576   0.492   4.162   4.269
 2910SOL    HW113577   0.508   4.088   4.211
 2910SOL    HW213578   0.437   4.127   4.338
 2911SOL     OW13579   1.673   5.222   4.833
 2911SOL    HW113580   1.596   5.198   4.781
 2911SOL    HW213581   1.686   5.147   4.891
 2912SOL     OW13582   0.288   4.274   5.039
 2912SOL    HW113583   0.347   4.212   5.083
 2912SOL    HW213584   0.314   4.269   4.947
 2913SOL     OW13585   0.840   5.340   4.369
 2913SOL    HW113586   0.835   5.429   4.334
 2913SOL    HW213587   0.760   5.297   4.337
 2914SOL     OW13588   1.425   3.867   4.832
 2914SOL    HW113589   1.405   3.774   4.820
 2914SOL    HW213590   1.384   3.889   4.916
 2915SOL     OW13591   1.127   3.763   4.870
 2915SOL    HW113592   1.058   3.726   4.925
 2915SOL    HW213593   1.194   3.694   4.868
 2916SOL     OW13594   0.779   5.057   4.065
 2916SOL    HW113595   0.755   4.965   4.072
 2916SOL    HW213596   0.861   5.064   4.113
 2917SOL     OW13597   0.605   5.270   5.063
 2917SOL    HW113598   0.654   5.345   5.095
 2917SOL    HW213599   0.664   5.196   5.076
 2918SOL     OW13600   1.322   3.759   3.893
 2918SOL    HW113601   1.306   3.731   3.803
 2918SOL    HW213602   1.256   3.713   3.944
 2919SOL     OW13603   1.360   4.234   4.451
 2919SOL    HW113604   1.278   4.274   4.423
 2919SOL    HW213605   1.333   4.166   4.513
 2920SOL     OW13606   1.654   3.973   4.693
 2920SOL    HW113607   1.575   3.948   4.741
 2920SOL    HW213608   1.624   4.034   4.626
 2921SOL     OW13609   0.061   4.803   4.011
 2921SOL    HW113610   0.145   4.760   4.000
 2921SOL    HW213611   0.021   4.759   4.086
 2922SOL     OW13612   0.909   5.409   4.050
 2922SOL    HW113613   0.836   5.388   3.993
 2922SOL    HW213614   0.875   5.474   4.111
 2923SOL     OW13615   0.180   4.325   5.759
 2923SOL    HW113616   0.231   4.373   5.824
 2923SOL    HW213617   0.164   4.388   5.689
 2924SOL     OW13618   0.191   4.003   6.584
 2924SOL    HW113619   0.223   3.981   6.671
 2924SOL    HW213620   0.122   3.939   6.567
 2925SOL     OW13621   1.549   5.263   6.291
 2925SOL    HW113622   1.500   5.236   6.368
 2925SOL    HW213623   1.482   5.279   6.225
 2926SOL     OW13624   1.139   4.404   6.271
 2926SOL    HW113625   1.185   4.487   6.283
 2926SOL    HW213626   1.087   4.392   6.350
 2927SOL     OW13627   0.883   4.489   7.386
 2927SOL    HW113628   0.832   4.552   7.436
 2927SOL    HW213629   0.886   4.527   7.298
 2928SOL     OW13630   0.665   4.712   6.262
 2928SOL    HW113631   0.736   4.695   6.324
 2928SOL    HW213632   0.605   4.770   6.309
 2929SOL     OW13633   0.709   4.857   7.423
 2929SOL    HW113634   0.751   4.931   7.466
 2929SOL    HW213635   0.638   4.896   7.372
 2930SOL     OW13636   0.341   5.068   6.668
 2930SOL    HW113637   0.261   5.068   6.615
 2930SOL    HW213638   0.401   5.125   6.620
 2931SOL     OW13639   1.499   5.241   7.055
 2931SOL    HW113640   1.407   5.265   7.048
 2931SOL    HW213641   1.501   5.146   7.039
 2932SOL     OW13642   0.441   4.088   7.088
 2932SOL    HW113643   0.518   4.032   7.082
 2932SOL    HW213644   0.414   4.082   7.180
 2933SOL     OW13645   0.304   5.452   6.062
 2933SOL    HW113646   0.218   5.487   6.085
 2933SOL    HW213647   0.294   5.357   6.070
 2934SOL     OW13648   1.112   5.074   7.287
 2934SOL    HW113649   1.132   5.078   7.381
 2934SOL    HW213650   1.062   4.993   7.277
 2935SOL     OW13651   0.180   5.135   6.196
 2935SOL    HW113652   0.102   5.161   6.147
 2935SOL    HW213653   0.186   5.040   6.182
 2936SOL     OW13654   0.297   4.781   6.521
 2936SOL    HW113655   0.265   4.691   6.510
 2936SOL    HW213656   0.222   4.830   6.554
 2937SOL     OW13657   0.639   5.511   7.076
 2937SOL    HW113658   0.546   5.501   7.097
 2937SOL    HW213659   0.649   5.604   7.057
 2938SOL     OW13660   0.763   4.732   5.807
 2938SOL    HW113661   0.763   4.798   5.739
 2938SOL    HW213662   0.855   4.706   5.815
 2939SOL     OW13663   1.556   3.849   6.995
 2939SOL    HW113664   1.497   3.879   6.926
 2939SOL    HW213665   1.506   3.781   7.041
 2940SOL     OW13666   1.898   5.465   5.985
 2940SOL    HW113667   1.818   5.459   6.038
 2940SOL    HW213668   1.891   5.548   5.938
 2941SOL     OW13669   9.899   5.314   5.735
 2941SOL    HW113670   9.869   5.330   5.645
 2941SOL    HW213671   9.954   5.235   5.728
 2942SOL     OW13672   1.729   4.670   6.282
 2942SOL    HW113673   1.656   4.612   6.306
 2942SOL    HW213674   1.706   4.702   6.195
 2943SOL     OW13675   1.698   4.801   6.038
 2943SOL    HW113676   1.650   4.797   5.955
 2943SOL    HW213677   1.664   4.878   6.082
 2944SOL     OW13678   0.200   4.599   7.120
 2944SOL    HW113679   0.294   4.579   7.116
 2944SOL    HW213680   0.173   4.572   7.207
 2945SOL     OW13681   0.566   5.118   6.302
 2945SOL    HW113682   0.521   5.034   6.302
 2945SOL    HW213683   0.550   5.154   6.214
 2946SOL     OW13684   1.450   4.961   7.002
 2946SOL    HW113685   1.389   4.908   6.952
 2946SOL    HW213686   1.444   4.926   7.091
 2947SOL     OW13687   0.899   3.790   6.126
 2947SOL    HW113688   0.912   3.878   6.091
 2947SOL    HW213689   0.809   3.767   6.101
 2948SOL     OW13690   1.634   4.752   5.774
 2948SOL    HW113691   1.687   4.686   5.728
 2948SOL    HW213692   1.544   4.730   5.752
 2949SOL     OW13693   0.362   4.082   7.366
 2949SOL    HW113694   0.403   4.130   7.439
 2949SOL    HW213695   0.356   3.992   7.398
 2950SOL     OW13696   1.462   5.128   6.531
 2950SOL    HW113697   1.389   5.148   6.589
 2950SOL    HW213698   1.432   5.053   6.480
 2951SOL     OW13699   1.649   5.490   6.101
 2951SOL    HW113700   1.600   5.472   6.021
 2951SOL    HW213701   1.612   5.430   6.166
 2952SOL     OW13702   1.312   4.091   6.514
 2952SOL    HW113703   1.232   4.040   6.501
 2952SOL    HW213704   1.310   4.113   6.608
 2953SOL     OW13705   1.526   5.469   5.844
 2953SOL    HW113706   1.555   5.393   5.792
 2953SOL    HW213707   1.477   5.523   5.783
 2954SOL     OW13708   0.850   4.266   7.031
 2954SOL    HW113709   0.798   4.271   7.112
 2954SOL    HW213710   0.795   4.217   6.970
 2955SOL     OW13711   1.430   4.249   7.246
 2955SOL    HW113712   1.425   4.266   7.340
 2955SOL    HW213713   1.457   4.157   7.239
 2956SOL     OW13714   0.898   4.625   7.134
 2956SOL    HW113715   0.954   4.562   7.089
 2956SOL    HW213716   0.840   4.659   7.066
 2957SOL     OW13717   1.025   4.172   6.783
 2957SOL    HW113718   0.945   4.170   6.837
 2957SOL    HW213719   1.009   4.108   6.713
 2958SOL     OW13720   1.016   4.390   6.023
 2958SOL    HW113721   1.058   4.389   6.108
 2958SOL    HW213722   0.933   4.345   6.036
 2959SOL     OW13723   0.054   4.577   6.379
 2959SOL    HW113724   0.095   4.562   6.294
 2959SOL    HW213725   0.024   4.491   6.407
 2960SOL     OW13726   0.097   5.597   7.162
 2960SOL    HW113727   0.112   5.592   7.257
 2960SOL    HW213728   0.046   5.518   7.143
 2961SOL     OW13729   0.851   4.042   5.766
 2961SOL    HW113730   0.897   4.044   5.682
 2961SOL    HW213731   0.789   3.970   5.757
 2962SOL     OW13732   1.792   4.258   7.384
 2962SOL    HW113733   1.749   4.340   7.358
 2962SOL    HW213734   1.768   4.195   7.316
 2963SOL     OW13735   1.368   4.826   6.106
 2963SOL    HW113736   1.344   4.773   6.030
 2963SOL    HW213737   1.332   4.913   6.088
 2964SOL     OW13738   0.552   3.906   6.536
 2964SOL    HW113739   0.549   3.909   6.631
 2964SOL    HW213740   0.534   3.996   6.509
 2965SOL     OW13741   1.044   5.228   6.086
 2965SOL    HW113742   1.015   5.288   6.017
 2965SOL    HW213743   0.972   5.231   6.150
 2966SOL     OW13744   0.397   5.487   6.452
 2966SOL    HW113745   0.404   5.392   6.459
 2966SOL    HW213746   0.476   5.520   6.494
 2967SOL     OW13747   1.815   4.832   6.486
 2967SOL    HW113748   1.787   4.781   6.410
 2967SOL    HW213749   1.743   4.824   6.548
 2968SOL     OW13750   1.227   5.203   7.044
 2968SOL    HW113751   1.220   5.173   7.135
 2968SOL    HW213752   1.141   5.183   7.006
 2969SOL     OW13753   1.518   4.510   6.381
 2969SOL    HW113754   1.511   4.448   6.453
 2969SOL    HW213755   1.543   4.457   6.305
 2970SOL     OW13756   0.486   5.008   7.306
 2970SOL    HW113757   0.437   5.043   7.232
 2970SOL    HW213758   0.419   4.981   7.369
 2971SOL     OW13759   1.203   5.474   5.826
 2971SOL    HW113760   1.115   5.463   5.860
 2971SOL    HW213761   1.211   5.407   5.758
 2972SOL     OW13762   0.076   3.964   7.067
 2972SOL    HW113763   9.983   3.985   7.069
 2972SOL    HW213764   0.083   3.879   7.109
 2973SOL     OW13765   1.651   5.151   5.674
 2973SOL    HW113766   1.625   5.209   5.603
 2973SOL    HW213767   1.584   5.083   5.676
 2974SOL     OW13768   0.607   5.491   5.992
 2974SOL    HW113769   0.577   5.409   6.033
 2974SOL    HW213770   0.639   5.464   5.905
 2975SOL     OW13771   1.438   3.866   5.972
 2975SOL    HW113772   1.428   3.804   5.901
 2975SOL    HW213773   1.417   3.816   6.051
 2976SOL     OW13774   0.231   5.514   6.806
 2976SOL    HW113775   0.275   5.434   6.834
 2976SOL    HW213776   0.182   5.488   6.728
 2977SOL     OW13777   0.891   5.421   6.471
 2977SOL    HW113778   0.900   5.357   6.541
 2977SOL    HW213779   0.871   5.370   6.393
 2978SOL     OW13780   1.496   3.982   7.289
 2978SOL    HW113781   1.466   3.964   7.379
 2978SOL    HW213782   1.430   3.941   7.233
 2979SOL     OW13783   0.676   3.835   5.719
 2979SOL    HW113784   0.688   3.753   5.766
 2979SOL    HW213785   0.603   3.819   5.660
 2980SOL     OW13786   0.773   4.012   7.350
 2980SOL    HW113787   0.857   3.968   7.333
 2980SOL    HW213788   0.734   3.962   7.421
 2981SOL     OW13789   0.906   5.298   6.779
 2981SOL    HW113790   0.829   5.241   6.770
 2981SOL    HW213791   0.974   5.240   6.813
 2982SOL     OW13792   1.334   4.341   7.005
 2982SOL    HW113793   1.370   4.307   7.087
 2982SOL    HW213794   1.363   4.432   7.001
 2983SOL     OW13795   0.813   5.145   6.521
 2983SOL    HW113796   0.900   5.107   6.508
 2983SOL    HW213797   0.782   5.105   6.602
 2984SOL     OW13798   0.976   4.243   6.464
 2984SOL    HW113799   0.930   4.224   6.381
 2984SOL    HW213800   1.004   4.157   6.495
 2985SOL     OW13801   0.627   3.805   6.050
 2985SOL    HW113802   0.558   3.799   6.117
 2985SOL    HW213803   0.615   3.893   6.013
 2986SOL     OW13804   1.424   4.980   5.621
 2986SOL    HW113805   1.419   4.886   5.601
 2986SOL    HW213806   1.335   5.004   5.647
 2987SOL     OW13807   0.272   3.719   5.715
 2987SOL    HW113808   0.340   3.744   5.653
 2987SOL    HW213809   0.320   3.687   5.792
 2988SOL     OW13810   0.954   4.042   6.022
 2988SOL    HW113811   0.916   4.044   5.934
 2988SOL    HW213812   1.048   4.045   6.008
 2989SOL     OW13813   1.059   4.436   7.005
 2989SOL    HW113814   0.992   4.368   7.013
 2989SOL    HW213815   1.142   4.389   7.002
 2990SOL     OW13816   1.231   5.304   6.385
 2990SOL    HW113817   1.213   5.367   6.316
 2990SOL    HW213818   1.217   5.352   6.466
 2991SOL     OW13819   0.423   4.884   6.300
 2991SOL    HW113820   0.386   4.853   6.383
 2991SOL    HW213821   0.349   4.886   6.240
 2992SOL     OW13822   1.224   5.530   6.196
 2992SOL    HW113823   1.238   5.592   6.124
 2992SOL    HW213824   1.150   5.567   6.245
 2993SOL     OW13825   0.108   4.381   6.970
 2993SOL    HW113826   0.180   4.322   6.946
 2993SOL    HW213827   0.149   4.445   7.027
 2994SOL     OW13828   0.535   3.918   6.811
 2994SOL    HW113829   0.554   3.838   6.860
 2994SOL    HW213830   0.442   3.935   6.829
 2995SOL     OW13831   0.838   4.182   6.234
 2995SOL    HW113832   0.744   4.165   6.228
 2995SOL    HW213833   0.877   4.127   6.166
 2996SOL     OW13834   1.005   3.816   6.375
 2996SOL    HW113835   0.963   3.804   6.290
 2996SOL    HW213836   0.990   3.733   6.421
 2997SOL     OW13837   1.424   4.901   6.372
 2997SOL    HW113838   1.372   4.834   6.416
 2997SOL    HW213839   1.403   4.891   6.279
 2998SOL     OW13840   1.448   4.329   6.600
 2998SOL    HW113841   1.429   4.266   6.531
 2998SOL    HW213842   1.394   4.300   6.674
 2999SOL     OW13843   0.522   5.183   5.724
 2999SOL    HW113844   0.447   5.168   5.781
 2999SOL    HW213845   0.496   5.145   5.640
 3000SOL     OW13846   1.659   5.007   6.233
 3000SOL    HW113847   1.600   4.958   6.291
 3000SOL    HW213848   1.625   5.097   6.236
 3001SOL     OW13849   0.561   4.051   5.929
 3001SOL    HW113850   0.571   4.000   5.848
 3001SOL    HW213851   0.525   4.135   5.900
 3002SOL     OW13852   1.834   5.010   7.114
 3002SOL    HW113853   1.803   4.953   7.184
 3002SOL    HW213854   1.839   5.097   7.154
 3003SOL     OW13855   0.994   5.096   6.959
 3003SOL    HW113856   0.900   5.112   6.974
 3003SOL    HW213857   1.009   5.008   6.995
 3004SOL     OW13858   1.595   5.407   7.260
 3004SOL    HW113859   1.560   5.496   7.252
 3004SOL    HW213860   1.559   5.360   7.184
 3005SOL     OW13861   1.119   4.963   6.716
 3005SOL    HW113862   1.032   4.955   6.755
 3005SOL    HW213863   1.102   4.990   6.626
 3006SOL     OW13864   1.618   4.801   6.678
 3006SOL    HW113865   1.632   4.867   6.746
 3006SOL    HW213866   1.523   4.799   6.666
 3007SOL     OW13867   1.086   3.827   7.017
 3007SOL    HW113868   1.040   3.815   6.934
 3007SOL    HW213869   1.125   3.742   7.036
 3008SOL     OW13870   0.973   4.819   7.314
 3008SOL    HW113871   0.887   4.837   7.350
 3008SOL    HW213872   0.957   4.755   7.244
 3009SOL     OW13873   1.294   4.188   6.783
 3009SOL    HW113874   1.315   4.229   6.867
 3009SOL    HW213875   1.198   4.183   6.782
 3010SOL     OW13876   0.047   5.262   6.914
 3010SOL    HW113877   0.020   5.320   6.985
 3010SOL    HW213878   0.140   5.283   6.900
 3011SOL     OW13879   0.528   4.191   6.491
 3011SOL    HW113880   0.548   4.188   6.397
 3011SOL    HW213881   0.608   4.225   6.531
 3012SOL     OW13882   1.278   5.082   6.080
 3012SOL    HW113883   1.327   5.164   6.078
 3012SOL    HW213884   1.186   5.108   6.081
 3013SOL     OW13885   1.285   5.179   6.760
 3013SOL    HW113886   1.289   5.191   6.854
 3013SOL    HW213887   1.226   5.104   6.747
 3014SOL     OW13888   0.325   5.254   6.873
 3014SOL    HW113889   0.319   5.190   6.802
 3014SOL    HW213890   0.415   5.288   6.867
 3015SOL     OW13891   0.470   4.535   7.118
 3015SOL    HW113892   0.518   4.566   7.041
 3015SOL    HW213893   0.500   4.444   7.130
 3016SOL     OW13894   1.671   4.486   7.306
 3016SOL    HW113895   1.576   4.501   7.305
 3016SOL    HW213896   1.707   4.559   7.254
 3017SOL     OW13897   1.013   3.903   7.278
 3017SOL    HW113898   1.073   3.977   7.276
 3017SOL    HW213899   1.027   3.858   7.194
 3018SOL     OW13900   0.546   3.726   7.351
 3018SOL    HW113901   0.490   3.686   7.285
 3018SOL    HW213902   0.485   3.763   7.415
 3019SOL     OW13903   0.669   4.557   6.631
 3019SOL    HW113904   0.678   4.574   6.725
 3019SOL    HW213905   0.576   4.545   6.616
 3020SOL     OW13906   1.316   4.586   6.633
 3020SOL    HW113907   1.228   4.565   6.601
 3020SOL    HW213908   1.368   4.508   6.613
 3021SOL     OW13909   1.123   4.268   5.797
 3021SOL    HW113910   1.166   4.190   5.832
 3021SOL    HW213911   1.084   4.310   5.873
 3022SOL     OW13912   0.256   3.932   6.846
 3022SOL    HW113913   0.209   3.956   6.926
 3022SOL    HW213914   0.252   3.836   6.844
 3023SOL     OW13915   9.998   4.998   6.888
 3023SOL    HW113916   0.042   4.960   6.964
 3023SOL    HW213917   0.010   5.093   6.899
 3024SOL     OW13918   0.749   4.290   6.617
 3024SOL    HW113919   0.831   4.282   6.569
 3024SOL    HW213920   0.735   4.385   6.626
 3025SOL     OW13921   0.404   3.812   6.207
 3025SOL    HW113922   0.388   3.887   6.265
 3025SOL    HW213923   0.390   3.735   6.262
 3026SOL     OW13924   1.699   4.004   6.002
 3026SOL    HW113925   1.608   3.975   5.998
 3026SOL    HW213926   1.694   4.096   6.027
 3027SOL     OW13927   1.063   4.489   6.559
 3027SOL    HW113928   1.026   4.516   6.643
 3027SOL    HW213929   1.036   4.398   6.549
 3028SOL     OW13930   1.061   5.354   7.282
 3028SOL    HW113931   1.006   5.382   7.209
 3028SOL    HW213932   1.060   5.258   7.277
 3029SOL     OW13933   1.853   5.254   7.242
 3029SOL    HW113934   1.773   5.308   7.239
 3029SOL    HW213935   1.884   5.263   7.332
 3030SOL     OW13936   0.407   4.684   7.352
 3030SOL    HW113937   0.459   4.652   7.426
 3030SOL    HW213938   0.439   4.635   7.277
 3031SOL     OW13939   1.530   3.979   5.717
 3031SOL    HW113940   1.516   3.889   5.747
 3031SOL    HW213941   1.484   4.034   5.780
 3032SOL     OW13942   1.421   4.602   5.662
 3032SOL    HW113943   1.475   4.524   5.656
 3032SOL    HW213944   1.409   4.631   5.572
 3033SOL     OW13945   1.080   5.071   6.467
 3033SOL    HW113946   1.085   4.993   6.412
 3033SOL    HW213947   1.129   5.138   6.418
 3034SOL     OW13948   0.396   4.530   6.685
 3034SOL    HW113949   0.347   4.452   6.658
 3034SOL    HW213950   0.428   4.508   6.773
 3035SOL     OW13951   0.286   4.267   6.606
 3035SOL    HW113952   0.237   4.185   6.598
 3035SOL    HW213953   0.368   4.250   6.560
 3036SOL     OW13954   1.167   4.135   7.271
 3036SOL    HW113955   1.100   4.171   7.329
 3036SOL    HW213956   1.235   4.202   7.268
 3037SOL     OW13957   1.293   3.995   7.071
 3037SOL    HW113958   1.245   4.053   7.129
 3037SOL    HW213959   1.230   3.928   7.045
 3038SOL     OW13960   0.058   5.061   5.827
 3038SOL    HW113961   0.106   5.042   5.746
 3038SOL    HW213962   0.035   4.975   5.862
 3039SOL     OW13963   0.140   5.418   6.560
 3039SOL    HW113964   0.150   5.326   6.536
 3039SOL    HW213965   0.210   5.463   6.514
 3040SOL     OW13966   0.504   5.242   6.535
 3040SOL    HW113967   0.582   5.277   6.578
 3040SOL    HW213968   0.537   5.199   6.456
 3041SOL     OW13969   0.955   4.579   6.791
 3041SOL    HW113970   0.990   4.529   6.865
 3041SOL    HW213971   0.887   4.634   6.830
 3042SOL     OW13972   0.044   4.427   6.700
 3042SOL    HW113973   0.111   4.374   6.657
 3042SOL    HW213974   0.052   4.405   6.793
 3043SOL     OW13975   0.145   4.222   7.271
 3043SOL    HW113976   0.228   4.179   7.293
 3043SOL    HW213977   0.117   4.180   7.190
 3044SOL     OW13978   1.421   4.603   7.262
 3044SOL    HW113979   1.435   4.697   7.267
 3044SOL    HW213980   1.403   4.586   7.170
 3045SOL     OW13981   0.770   4.308   5.811
 3045SOL    HW113982   0.792   4.215   5.808
 3045SOL    HW213983   0.677   4.310   5.834
 3046SOL     OW13984   1.677   4.333   6.774
 3046SOL    HW113985   1.662   4.261   6.835
 3046SOL    HW213986   1.605   4.327   6.711
 3047SOL     OW13987   0.271   5.295   7.333
 3047SOL    HW113988   0.273   5.235   7.408
 3047SOL    HW213989   0.268   5.238   7.256
 3048SOL     OW13990   0.737   4.113   6.833
 3048SOL    HW113991   0.666   4.049   6.827
 3048SOL    HW213992   0.726   4.170   6.757
 3049SOL     OW13993   0.901   5.414   7.053
 3049SOL    HW113994   0.904   5.355   6.978
 3049SOL    HW213995   0.808   5.430   7.067
 3050SOL     OW13996   0.490   4.315   5.850
 3050SOL    HW113997   0.470   4.368   5.772
 3050SOL    HW213998   0.421   4.337   5.912
 3051SOL     OW13999   0.161   4.874   7.088
 3051SOL    HW114000   0.147   4.885   7.182
 3051SOL    HW214001   0.177   4.781   7.077
 3052SOL     OW14002   1.321   4.796   6.805
 3052SOL    HW114003   1.314   4.721   6.746
 3052SOL    HW214004   1.249   4.853   6.781
 3053SOL     OW14005   1.295   4.640   5.907
 3053SOL    HW114006   1.296   4.551   5.942
 3053SOL    HW214007   1.331   4.631   5.819
 3054SOL     OW14008   1.732   5.412   6.721
 3054SOL    HW114009   1.825   5.414   6.698
 3054SOL    HW214010   1.706   5.321   6.708
 3055SOL     OW14011   1.234   5.425   6.642
 3055SOL    HW114012   1.320   5.466   6.650
 3055SOL    HW214013   1.243   5.340   6.685
 3056SOL     OW14014   0.084   4.900   6.643
 3056SOL    HW114015   0.057   4.944   6.724
 3056SOL    HW214016   0.019   4.832   6.630
 3057SOL     OW14017   0.717   5.421   7.331
 3057SOL    HW114018   0.691   5.460   7.248
 3057SOL    HW214019   0.725   5.327   7.312
 3058SOL     OW14020   1.858   3.877   6.184
 3058SOL    HW114021   1.803   3.922   6.120
 3058SOL    HW214022   1.813   3.795   6.202
 3059SOL     OW14023   1.387   5.341   6.079
 3059SOL    HW114024   1.379   5.362   5.986
 3059SOL    HW214025   1.319   5.393   6.121
 3060SOL     OW14026   0.159   5.543   7.426
 3060SOL    HW114027   0.181   5.453   7.400
 3060SOL    HW214028   0.217   5.561   7.500
 3061SOL     OW14029   1.288   4.638   6.296
 3061SOL    HW114030   1.367   4.595   6.328
 3061SOL    HW214031   1.318   4.692   6.223
 3062SOL     OW14032   0.702   5.392   5.748
 3062SOL    HW114033   0.729   5.394   5.657
 3062SOL    HW214034   0.642   5.317   5.755
 3063SOL     OW14035   1.752   5.530   6.975
 3063SOL    HW114036   1.715   5.487   6.898
 3063SOL    HW214037   1.685   5.592   7.003
 3064SOL     OW14038   1.836   3.890   6.577
 3064SOL    HW114039   1.856   3.815   6.521
 3064SOL    HW214040   1.743   3.906   6.563
 3065SOL     OW14041   0.319   4.042   6.331
 3065SOL    HW114042   0.249   4.047   6.266
 3065SOL    HW214043   0.274   4.035   6.415
 3066SOL     OW14044   1.230   5.293   5.621
 3066SOL    HW114045   1.216   5.202   5.648
 3066SOL    HW214046   1.159   5.310   5.558
 3067SOL     OW14047   1.013   4.605   5.851
 3067SOL    HW114048   1.096   4.651   5.866
 3067SOL    HW214049   1.009   4.540   5.921
 3068SOL     OW14050   1.478   5.387   5.533
 3068SOL    HW114051   1.397   5.345   5.561
 3068SOL    HW214052   1.449   5.469   5.491
 3069SOL     OW14053   0.308   5.115   7.118
 3069SOL    HW114054   0.312   5.165   7.037
 3069SOL    HW214055   0.249   5.043   7.099
 3070SOL     OW14056   1.686   4.982   6.878
 3070SOL    HW114057   1.744   4.990   6.954
 3070SOL    HW214058   1.598   4.982   6.914
 3071SOL     OW14059   1.082   4.817   6.364
 3071SOL    HW114060   0.999   4.774   6.383
 3071SOL    HW214061   1.141   4.747   6.338
 3072SOL     OW14062   1.052   3.989   6.571
 3072SOL    HW114063   1.035   3.938   6.492
 3072SOL    HW214064   1.038   3.927   6.643
 3073SOL     OW14065   0.553   5.220   6.047
 3073SOL    HW114066   0.619   5.171   5.998
 3073SOL    HW214067   0.469   5.195   6.008
 3074SOL     OW14068   1.695   4.097   6.942
 3074SOL    HW114069   1.766   4.045   6.905
 3074SOL    HW214070   1.625   4.033   6.960
 3075SOL     OW14071   0.327   5.125   5.910
 3075SOL    HW114072   0.233   5.131   5.891
 3075SOL    HW214073   0.346   5.031   5.908
 3076SOL     OW14074   0.175   4.830   7.369
 3076SOL    HW114075   0.111   4.766   7.399
 3076SOL    HW214076   0.257   4.781   7.362
 3077SOL     OW14077   0.678   3.938   7.099
 3077SOL    HW114078   0.752   3.972   7.048
 3077SOL    HW214079   0.702   3.956   7.190
 3078SOL     OW14080   0.051   4.081   5.476
 3078SOL    HW114081   0.008   4.057   5.394
 3078SOL    HW214082   0.110   4.152   5.453
 3079SOL     OW14083   1.423   4.602   6.985
 3079SOL    HW114084   1.371   4.662   6.932
 3079SOL    HW214085   1.509   4.602   6.943
 3080SOL     OW14086   9.988   3.947   5.838
 3080SOL    HW114087   0.070   3.993   5.820
 3080SOL    HW214088   0.015   3.866   5.881
 3081SOL     OW14089   1.151   5.030   5.665
 3081SOL    HW114090   1.118   4.948   5.627
 3081SOL    HW214091   1.073   5.071   5.704
 3082SOL     OW14092   1.489   5.531   6.642
 3082SOL    HW114093   1.510   5.542   6.549
 3082SOL    HW214094   1.568   5.491   6.680
 3083SOL     OW14095   0.722   4.273   7.273
 3083SOL    HW114096   0.774   4.327   7.332
 3083SOL    HW214097   0.732   4.184   7.306
 3084SOL     OW14098   1.485   4.869   7.263
 3084SOL    HW114099   1.437   4.896   7.341
 3084SOL    HW214100   1.577   4.873   7.289
 3085SOL     OW14101   0.381   5.505   7.179
 3085SOL    HW114102   0.298   5.538   7.143
 3085SOL    HW214103   0.355   5.430   7.233
 3086SOL     OW14104   1.676   4.602   6.864
 3086SOL    HW114105   1.682   4.512   6.830
 3086SOL    HW214106   1.663   4.656   6.787
 3087SOL     OW14107   1.231   4.060   5.973
 3087SOL    HW114108   1.294   3.989   5.966
 3087SOL    HW214109   1.245   4.096   6.061
 3088SOL     OW14110   1.751   4.041   7.216
 3088SOL    HW114111   1.741   4.070   7.125
 3088SOL    HW214112   1.664   4.008   7.240
 3089SOL     OW14113   1.773   4.671   7.122
 3089SOL    HW114114   1.734   4.746   7.166
 3089SOL    HW214115   1.727   4.666   7.038
 3090SOL     OW14116   0.905   5.155   5.676
 3090SOL    HW114117   0.854   5.082   5.641
 3090SOL    HW214118   0.922   5.211   5.600
 3091SOL     OW14119   0.653   5.555   6.542
 3091SOL    HW114120   0.667   5.637   6.495
 3091SOL    HW214121   0.733   5.505   6.526
 3092SOL     OW14122   0.863   4.658   6.457
 3092SOL    HW114123   0.938   4.604   6.483
 3092SOL    HW214124   0.794   4.633   6.519
 3093SOL     OW14125   1.799   5.271   6.426
 3093SOL    HW114126   1.723   5.271   6.367
 3093SOL    HW214127   1.773   5.213   6.497
 3094SOL     OW14128   0.265   5.064   7.506
 3094SOL    HW114129   0.223   4.980   7.486
 3094SOL    HW214130   0.247   5.078   7.599
 3095SOL     OW14131   0.170   4.856   6.162
 3095SOL    HW114132   0.151   4.769   6.198
 3095SOL    HW214133   0.134   4.853   6.073
 3096SOL     OW14134   0.721   5.152   7.277
 3096SOL    HW114135   0.736   5.140   7.183
 3096SOL    HW214136   0.638   5.108   7.294
 3097SOL     OW14137   1.892   3.920   6.846
 3097SOL    HW114138   1.856   3.842   6.890
 3097SOL    HW214139   1.866   3.909   6.755
 3098SOL     OW14140   0.561   4.127   6.210
 3098SOL    HW114141   0.558   4.105   6.117
 3098SOL    HW214142   0.476   4.099   6.244
 3099SOL     OW14143   1.701   5.148   6.657
 3099SOL    HW114144   1.616   5.135   6.615
 3099SOL    HW214145   1.699   5.091   6.734
 3100SOL     OW14146   0.342   4.263   6.901
 3100SOL    HW114147   0.379   4.199   6.962
 3100SOL    HW214148   0.347   4.220   6.815
 3101SOL     OW14149   0.819   5.260   6.255
 3101SOL    HW114150   0.744   5.263   6.195
 3101SOL    HW214151   0.792   5.200   6.324
 3102SOL     OW14152   1.395   3.921   6.783
 3102SOL    HW114153   1.326   3.855   6.790
 3102SOL    HW214154   1.353   4.003   6.810
 3103SOL     OW14155   0.980   3.797   6.757
 3103SOL    HW114156   0.887   3.789   6.736
 3103SOL    HW214157   1.009   3.707   6.771
 3104SOL     OW14158   0.726   5.083   5.887
 3104SOL    HW114159   0.661   5.083   5.817
 3104SOL    HW214160   0.809   5.101   5.843
 3105SOL     OW14161   0.581   5.337   6.847
 3105SOL    HW114162   0.623   5.382   6.920
 3105SOL    HW214163   0.634   5.258   6.835
 3106SOL     OW14164   1.264   4.159   6.227
 3106SOL    HW114165   1.223   4.244   6.239
 3106SOL    HW214166   1.290   4.131   6.315
 3107SOL     OW14167   1.560   3.931   6.561
 3107SOL    HW114168   1.512   3.923   6.643
 3107SOL    HW214169   1.501   3.977   6.501
 3108SOL     OW14170   0.031   4.804   5.924
 3108SOL    HW114171   0.105   4.759   5.883
 3108SOL    HW214172   9.959   4.741   5.920
 3109SOL     OW14173   0.944   5.424   5.912
 3109SOL    HW114174   0.870   5.401   5.855
 3109SOL    HW214175   0.907   5.485   5.975
 3110SOL     OW14176   0.248   4.434   7.614
 3110SOL    HW114177   0.179   4.400   7.671
 3110SOL    HW214178   0.312   4.363   7.608
 3111SOL     OW14179   0.155   4.019   8.456
 3111SOL    HW114180   0.190   3.978   8.535
 3111SOL    HW214181   0.086   3.960   8.427
 3112SOL     OW14182   0.075   4.151   8.016
 3112SOL    HW114183   9.984   4.124   8.026
 3112SOL    HW214184   0.124   4.068   8.013
 3113SOL     OW14185   0.570   5.033   8.652
 3113SOL    HW114186   0.490   5.037   8.599
 3113SOL    HW214187   0.586   5.123   8.678
 3114SOL     OW14188   1.567   5.257   8.125
 3114SOL    HW114189   1.530   5.218   8.204
 3114SOL    HW214190   1.491   5.278   8.071
 3115SOL     OW14191   1.144   4.422   8.125
 3115SOL    HW114192   1.173   4.512   8.115
 3115SOL    HW214193   1.091   4.422   8.204
 3116SOL     OW14194   1.810   4.263   7.654
 3116SOL    HW114195   1.775   4.264   7.565
 3116SOL    HW214196   1.747   4.210   7.703
 3117SOL     OW14197   0.731   4.856   8.509
 3117SOL    HW114198   0.672   4.895   8.573
 3117SOL    HW214199   0.767   4.931   8.460
 3118SOL     OW14200   0.866   4.500   9.295
 3118SOL    HW114201   0.773   4.479   9.287
 3118SOL    HW214202   0.889   4.539   9.211
 3119SOL     OW14203   0.700   4.735   8.093
 3119SOL    HW114204   0.761   4.733   8.166
 3119SOL    HW214205   0.632   4.796   8.120
 3120SOL     OW14206   0.771   4.898   9.241
 3120SOL    HW114207   0.798   4.976   9.289
 3120SOL    HW214208   0.677   4.910   9.227
 3121SOL     OW14209   0.342   5.132   8.498
 3121SOL    HW114210   0.270   5.112   8.438
 3121SOL    HW214211   0.398   5.192   8.448
 3122SOL     OW14212   1.455   5.231   8.825
 3122SOL    HW114213   1.507   5.310   8.840
 3122SOL    HW214214   1.378   5.243   8.879
 3123SOL     OW14215   0.446   4.137   8.928
 3123SOL    HW114216   0.537   4.107   8.931
 3123SOL    HW214217   0.395   4.057   8.921
 3124SOL     OW14218   1.581   4.189   8.198
 3124SOL    HW114219   1.502   4.188   8.145
 3124SOL    HW214220   1.553   4.228   8.281
 3125SOL     OW14221   1.142   5.075   9.131
 3125SOL    HW114222   1.181   5.067   9.218
 3125SOL    HW214223   1.098   4.991   9.117
 3126SOL     OW14224   0.336   4.775   8.365
 3126SOL    HW114225   0.274   4.713   8.325
 3126SOL    HW214226   0.281   4.833   8.418
 3127SOL     OW14227   0.595   5.506   8.921
 3127SOL    HW114228   0.502   5.506   8.944
 3127SOL    HW214229   0.620   5.598   8.921
 3128SOL     OW14230   0.581   4.690   7.608
 3128SOL    HW114231   0.621   4.741   7.538
 3128SOL    HW214232   0.624   4.721   7.688
 3129SOL     OW14233   1.528   3.918   8.871
 3129SOL    HW114234   1.433   3.928   8.875
 3129SOL    HW214235   1.543   3.827   8.897
 3130SOL     OW14236   0.169   4.406   8.056
 3130SOL    HW114237   0.141   4.314   8.056
 3130SOL    HW214238   0.173   4.430   8.149
 3131SOL     OW14239   1.929   5.466   7.840
 3131SOL    HW114240   1.850   5.466   7.894
 3131SOL    HW214241   1.914   5.537   7.777
 3132SOL     OW14242   1.700   4.675   8.109
 3132SOL    HW114243   1.631   4.612   8.130
 3132SOL    HW214244   1.665   4.727   8.037
 3133SOL     OW14245   1.642   4.854   7.902
 3133SOL    HW114246   1.707   4.824   7.839
 3133SOL    HW214247   1.659   4.948   7.910
 3134SOL     OW14248   0.182   4.461   9.058
 3134SOL    HW114249   0.278   4.457   9.067
 3134SOL    HW214250   0.161   4.554   9.061
 3135SOL     OW14251   0.626   5.139   8.173
 3135SOL    HW114252   0.576   5.058   8.179
 3135SOL    HW214253   0.603   5.176   8.088
 3136SOL     OW14254   1.262   4.945   8.853
 3136SOL    HW114255   1.294   4.875   8.796
 3136SOL    HW214256   1.315   4.937   8.933
 3137SOL     OW14257   0.801   3.792   7.949
 3137SOL    HW114258   0.860   3.861   7.920
 3137SOL    HW214259   0.715   3.834   7.951
 3138SOL     OW14260   0.140   4.694   8.677
 3138SOL    HW114261   0.129   4.761   8.610
 3138SOL    HW214262   0.186   4.623   8.634
 3139SOL     OW14263   1.224   5.559   9.097
 3139SOL    HW114264   1.209   5.617   9.023
 3139SOL    HW214265   1.233   5.472   9.058
 3140SOL     OW14266   1.486   5.130   8.360
 3140SOL    HW114267   1.420   5.162   8.421
 3140SOL    HW214268   1.458   5.041   8.338
 3141SOL     OW14269   1.683   5.485   7.962
 3141SOL    HW114270   1.622   5.490   7.889
 3141SOL    HW214271   1.637   5.433   8.028
 3142SOL     OW14272   0.584   4.416   7.710
 3142SOL    HW114273   0.578   4.503   7.671
 3142SOL    HW214274   0.523   4.419   7.784
 3143SOL     OW14275   1.279   4.090   8.346
 3143SOL    HW114276   1.190   4.053   8.347
 3143SOL    HW214277   1.325   4.043   8.415
 3144SOL     OW14278   1.523   5.483   7.735
 3144SOL    HW114279   1.501   5.574   7.718
 3144SOL    HW214280   1.511   5.439   7.650
 3145SOL     OW14281   0.752   4.267   8.901
 3145SOL    HW114282   0.747   4.186   8.951
 3145SOL    HW214283   0.707   4.247   8.818
 3146SOL     OW14284   1.413   4.161   9.120
 3146SOL    HW114285   1.431   4.198   9.206
 3146SOL    HW214286   1.452   4.073   9.123
 3147SOL     OW14287   0.949   4.598   9.046
 3147SOL    HW114288   0.982   4.521   8.999
 3147SOL    HW214289   0.893   4.641   8.982
 3148SOL     OW14290   1.040   4.048   8.685
 3148SOL    HW114291   1.000   3.997   8.756
 3148SOL    HW214292   1.008   4.007   8.605
 3149SOL     OW14293   1.063   4.431   7.858
 3149SOL    HW114294   1.079   4.419   7.952
 3149SOL    HW214295   0.976   4.395   7.843
 3150SOL     OW14296   0.126   4.599   8.290
 3150SOL    HW114297   0.114   4.656   8.214
 3150SOL    HW214298   0.037   4.585   8.323
 3151SOL     OW14299   0.065   5.555   9.094
 3151SOL    HW114300   0.086   5.558   9.187
 3151SOL    HW214301   9.982   5.602   9.086
 3152SOL     OW14302   0.864   4.080   7.649
 3152SOL    HW114303   0.896   4.111   7.564
 3152SOL    HW214304   0.801   4.011   7.627
 3153SOL     OW14305   1.699   4.293   9.227
 3153SOL    HW114306   1.681   4.382   9.195
 3153SOL    HW214307   1.623   4.271   9.280
 3154SOL     OW14308   1.392   4.894   8.017
 3154SOL    HW114309   1.469   4.878   7.962
 3154SOL    HW214310   1.341   4.959   7.968
 3155SOL     OW14311   0.485   3.852   8.385
 3155SOL    HW114312   0.517   3.896   8.464
 3155SOL    HW214313   0.452   3.923   8.330
 3156SOL     OW14314   1.003   5.173   7.929
 3156SOL    HW114315   0.975   5.241   7.868
 3156SOL    HW214316   0.967   5.200   8.014
 3157SOL     OW14317   0.335   5.517   8.428
 3157SOL    HW114318   0.380   5.436   8.407
 3157SOL    HW214319   0.348   5.572   8.351
 3158SOL     OW14320   1.805   4.822   8.313
 3158SOL    HW114321   1.761   4.771   8.244
 3158SOL    HW214322   1.742   4.823   8.385
 3159SOL     OW14323   1.224   5.291   8.969
 3159SOL    HW114324   1.205   5.212   9.019
 3159SOL    HW214325   1.139   5.320   8.936
 3160SOL     OW14326   0.313   4.692   7.711
 3160SOL    HW114327   0.401   4.705   7.676
 3160SOL    HW214328   0.288   4.604   7.681
 3161SOL     OW14329   1.490   4.507   8.187
 3161SOL    HW114330   1.491   4.425   8.236
 3161SOL    HW214331   1.434   4.565   8.239
 3162SOL     OW14332   0.506   5.010   9.185
 3162SOL    HW114333   0.470   5.019   9.097
 3162SOL    HW214334   0.435   4.969   9.235
 3163SOL     OW14335   1.097   5.549   7.688
 3163SOL    HW114336   1.030   5.490   7.721
 3163SOL    HW214337   1.155   5.494   7.635
 3164SOL     OW14338   0.541   5.516   7.742
 3164SOL    HW114339   0.539   5.500   7.837
 3164SOL    HW214340   0.581   5.437   7.706
 3165SOL     OW14341   1.425   3.854   7.864
 3165SOL    HW114342   1.410   3.805   7.783
 3165SOL    HW214343   1.402   3.793   7.934
 3166SOL     OW14344   0.252   5.512   8.687
 3166SOL    HW114345   0.291   5.431   8.720
 3166SOL    HW214346   0.281   5.517   8.595
 3167SOL     OW14347   0.929   5.418   8.367
 3167SOL    HW114348   0.930   5.352   8.436
 3167SOL    HW214349   0.910   5.370   8.287
 3168SOL     OW14350   0.416   4.395   7.926
 3168SOL    HW114351   0.438   4.308   7.959
 3168SOL    HW214352   0.326   4.409   7.954
 3169SOL     OW14353   1.570   3.929   9.227
 3169SOL    HW114354   1.556   3.956   9.318
 3169SOL    HW214355   1.564   3.833   9.229
 3170SOL     OW14356   0.683   3.882   7.575
 3170SOL    HW114357   0.615   3.904   7.639
 3170SOL    HW214358   0.650   3.804   7.532
 3171SOL     OW14359   0.833   3.963   9.304
 3171SOL    HW114360   0.790   3.878   9.296
 3171SOL    HW214361   0.767   4.026   9.274
 3172SOL     OW14362   0.870   5.244   8.619
 3172SOL    HW114363   0.834   5.192   8.547
 3172SOL    HW214364   0.928   5.183   8.665
 3173SOL     OW14365   1.407   4.310   8.876
 3173SOL    HW114366   1.409   4.262   8.959
 3173SOL    HW214367   1.381   4.399   8.900
 3174SOL     OW14368   0.812   5.097   8.388
 3174SOL    HW114369   0.898   5.098   8.345
 3174SOL    HW214370   0.750   5.115   8.318
 3175SOL     OW14371   0.953   4.225   8.328
 3175SOL    HW114372   0.926   4.218   8.237
 3175SOL    HW214373   0.976   4.135   8.353
 3176SOL     OW14374   1.343   4.917   7.494
 3176SOL    HW114375   1.288   4.841   7.514
 3176SOL    HW214376   1.289   4.992   7.519
 3177SOL     OW14377   0.366   3.857   7.523
 3177SOL    HW114378   0.400   3.890   7.606
 3177SOL    HW214379   0.345   3.765   7.541
 3178SOL     OW14380   0.979   3.993   7.884
 3178SOL    HW114381   0.940   4.021   7.801
 3178SOL    HW214382   1.071   4.017   7.876
 3179SOL     OW14383   1.007   4.371   8.899
 3179SOL    HW114384   0.920   4.330   8.901
 3179SOL    HW214385   1.064   4.308   8.943
 3180SOL     OW14386   1.234   5.322   8.239
 3180SOL    HW114387   1.241   5.393   8.175
 3180SOL    HW214388   1.230   5.366   8.324
 3181SOL     OW14389   0.486   4.899   8.160
 3181SOL    HW114390   0.433   4.862   8.231
 3181SOL    HW214391   0.424   4.911   8.088
 3182SOL     OW14392   1.255   5.546   8.063
 3182SOL    HW114393   1.294   5.620   8.016
 3182SOL    HW214394   1.177   5.582   8.104
 3183SOL     OW14395   1.006   4.250   7.459
 3183SOL    HW114396   0.970   4.337   7.443
 3183SOL    HW214397   1.057   4.259   7.539
 3184SOL     OW14398   0.090   4.349   8.817
 3184SOL    HW114399   0.177   4.335   8.780
 3184SOL    HW214400   0.105   4.367   8.910
 3185SOL     OW14401   0.517   3.963   8.647
 3185SOL    HW114402   0.548   3.905   8.716
 3185SOL    HW214403   0.422   3.952   8.646
 3186SOL     OW14404   0.889   4.193   8.063
 3186SOL    HW114405   0.839   4.243   7.999
 3186SOL    HW214406   0.911   4.111   8.018
 3187SOL     OW14407   0.952   3.722   8.171
 3187SOL    HW114408   0.897   3.761   8.103
 3187SOL    HW214409   0.922   3.631   8.178
 3188SOL     OW14410   1.409   4.871   8.298
 3188SOL    HW114411   1.324   4.833   8.321
 3188SOL    HW214412   1.406   4.880   8.203
 3189SOL     OW14413   1.444   4.317   8.408
 3189SOL    HW114414   1.375   4.251   8.413
 3189SOL    HW214415   1.483   4.318   8.495
 3190SOL     OW14416   1.812   4.498   7.792
 3190SOL    HW114417   1.742   4.492   7.857
 3190SOL    HW214418   1.796   4.426   7.731
 3191SOL     OW14419   0.528   5.149   7.579
 3191SOL    HW114420   0.488   5.166   7.664
 3191SOL    HW214421   0.457   5.113   7.526
 3192SOL     OW14422   1.716   5.120   7.933
 3192SOL    HW114423   1.784   5.079   7.986
 3192SOL    HW214424   1.664   5.170   7.996
 3193SOL     OW14425   1.387   4.250   7.517
 3193SOL    HW114426   1.308   4.249   7.571
 3193SOL    HW214427   1.430   4.166   7.535
 3194SOL     OW14428   1.722   4.939   9.013
 3194SOL    HW114429   1.759   4.897   9.091
 3194SOL    HW214430   1.758   5.027   9.014
 3195SOL     OW14431   1.021   5.052   8.756
 3195SOL    HW114432   0.944   5.023   8.804
 3195SOL    HW214433   1.095   5.022   8.808
 3196SOL     OW14434   1.632   5.351   9.117
 3196SOL    HW114435   1.616   5.394   9.033
 3196SOL    HW214436   1.698   5.285   9.099
 3197SOL     OW14437   1.166   4.970   8.536
 3197SOL    HW114438   1.103   4.991   8.605
 3197SOL    HW214439   1.126   5.005   8.456
 3198SOL     OW14440   1.611   4.825   8.508
 3198SOL    HW114441   1.599   4.886   8.581
 3198SOL    HW214442   1.532   4.837   8.455
 3199SOL     OW14443   0.932   3.867   8.866
 3199SOL    HW114444   0.927   3.792   8.808
 3199SOL    HW214445   0.951   3.830   8.952
 3200SOL     OW14446   1.025   4.825   9.180
 3200SOL    HW114447   0.936   4.852   9.201
 3200SOL    HW214448   1.015   4.744   9.130
 3201SOL     OW14449   0.732   4.783   7.821
 3201SOL    HW114450   0.717   4.761   7.913
 3201SOL    HW214451   0.818   4.746   7.801
 3202SOL     OW14452   1.288   4.170   8.666
 3202SOL    HW114453   1.311   4.215   8.747
 3202SOL    HW214454   1.199   4.139   8.681
 3203SOL     OW14455   0.074   5.285   8.807
 3203SOL    HW114456   0.066   5.374   8.771
 3203SOL    HW214457   0.167   5.265   8.799
 3204SOL     OW14458   0.306   4.914   7.940
 3204SOL    HW114459   0.286   4.997   7.897
 3204SOL    HW214460   0.318   4.852   7.868
 3205SOL     OW14461   0.570   4.275   8.296
 3205SOL    HW114462   0.565   4.358   8.249
 3205SOL    HW214463   0.571   4.209   8.227
 3206SOL     OW14464   1.261   5.095   7.877
 3206SOL    HW114465   1.303   5.180   7.893
 3206SOL    HW214466   1.169   5.110   7.900
 3207SOL     OW14467   1.330   5.194   8.579
 3207SOL    HW114468   1.367   5.200   8.667
 3207SOL    HW214469   1.274   5.117   8.582
 3208SOL     OW14470   1.571   4.407   7.917
 3208SOL    HW114471   1.544   4.418   8.008
 3208SOL    HW214472   1.495   4.435   7.866
 3209SOL     OW14473   0.343   5.248   8.746
 3209SOL    HW114474   0.333   5.204   8.662
 3209SOL    HW214475   0.437   5.267   8.753
 3210SOL     OW14476   0.453   4.458   9.086
 3210SOL    HW114477   0.518   4.448   9.016
 3210SOL    HW214478   0.501   4.436   9.166
 3211SOL     OW14479   1.636   4.545   9.148
 3211SOL    HW114480   1.542   4.566   9.141
 3211SOL    HW214481   1.674   4.582   9.068
 3212SOL     OW14482   1.065   3.928   9.138
 3212SOL    HW114483   0.991   3.933   9.199
 3212SOL    HW214484   1.102   3.841   9.152
 3213SOL     OW14485   0.564   4.624   8.502
 3213SOL    HW114486   0.627   4.695   8.505
 3213SOL    HW214487   0.493   4.656   8.446
 3214SOL     OW14488   1.316   4.571   8.413
 3214SOL    HW114489   1.223   4.551   8.401
 3214SOL    HW214490   1.357   4.486   8.426
 3215SOL     OW14491   1.171   4.248   7.684
 3215SOL    HW114492   1.194   4.175   7.742
 3215SOL    HW214493   1.133   4.314   7.741
 3216SOL     OW14494   0.249   3.901   8.681
 3216SOL    HW114495   0.271   3.906   8.774
 3216SOL    HW214496   0.217   3.812   8.668
 3217SOL     OW14497   9.992   5.030   8.717
 3217SOL    HW114498   0.034   4.978   8.785
 3217SOL    HW214499   0.012   5.120   8.740
 3218SOL     OW14500   0.778   4.372   8.485
 3218SOL    HW114501   0.831   4.313   8.432
 3218SOL    HW214502   0.709   4.402   8.426
 3219SOL     OW14503   1.745   4.749   9.302
 3219SOL    HW114504   1.706   4.671   9.262
 3219SOL    HW214505   1.693   4.763   9.381
 3220SOL     OW14506   1.626   4.126   7.807
 3220SOL    HW114507   1.639   4.056   7.870
 3220SOL    HW214508   1.592   4.199   7.858
 3221SOL     OW14509   1.054   4.478   8.397
 3221SOL    HW114510   1.032   4.497   8.488
 3221SOL    HW214511   1.022   4.388   8.383
 3222SOL     OW14512   0.995   5.309   9.181
 3222SOL    HW114513   0.964   5.349   9.100
 3222SOL    HW214514   1.021   5.220   9.156
 3223SOL     OW14515   1.844   5.187   9.026
 3223SOL    HW114516   1.856   5.228   8.941
 3223SOL    HW214517   1.927   5.200   9.072
 3224SOL     OW14518   0.413   4.698   9.220
 3224SOL    HW114519   0.462   4.675   9.299
 3224SOL    HW214520   0.429   4.626   9.160
 3225SOL     OW14521   1.484   4.002   7.585
 3225SOL    HW114522   1.433   3.924   7.606
 3225SOL    HW214523   1.526   4.025   7.667
 3226SOL     OW14524   1.324   4.520   7.507
 3226SOL    HW114525   1.348   4.427   7.509
 3226SOL    HW214526   1.356   4.551   7.422
 3227SOL     OW14527   1.075   5.099   8.304
 3227SOL    HW114528   1.095   5.021   8.251
 3227SOL    HW214529   1.131   5.167   8.267
 3228SOL     OW14530   0.284   4.496   8.512
 3228SOL    HW114531   0.239   4.534   8.436
 3228SOL    HW214532   0.279   4.402   8.498
 3229SOL     OW14533   0.361   4.229   8.474
 3229SOL    HW114534   0.305   4.158   8.443
 3229SOL    HW214535   0.432   4.234   8.410
 3230SOL     OW14536   1.144   4.181   9.047
 3230SOL    HW114537   1.102   4.102   9.081
 3230SOL    HW214538   1.236   4.171   9.070
 3231SOL     OW14539   1.252   3.897   8.905
 3231SOL    HW114540   1.186   3.934   8.964
 3231SOL    HW214541   1.200   3.853   8.837
 3232SOL     OW14542   9.977   4.986   7.715
 3232SOL    HW114543   0.053   5.042   7.733
 3232SOL    HW214544   0.006   4.899   7.740
 3233SOL     OW14545   0.056   5.413   8.382
 3233SOL    HW114546   0.107   5.409   8.301
 3233SOL    HW214547   0.114   5.455   8.445
 3234SOL     OW14548   0.511   5.308   8.373
 3234SOL    HW114549   0.568   5.385   8.371
 3234SOL    HW214550   0.532   5.260   8.293
 3235SOL     OW14551   0.962   4.507   8.655
 3235SOL    HW114552   0.988   4.464   8.736
 3235SOL    HW214553   0.887   4.457   8.624
 3236SOL     OW14554   0.029   4.261   8.542
 3236SOL    HW114555   0.076   4.178   8.530
 3236SOL    HW214556   0.037   4.280   8.636
 3237SOL     OW14557   0.235   4.186   9.103
 3237SOL    HW114558   0.314   4.182   9.049
 3237SOL    HW214559   0.212   4.279   9.104
 3238SOL     OW14560   1.374   4.630   9.109
 3238SOL    HW114561   1.380   4.725   9.113
 3238SOL    HW214562   1.370   4.610   9.015
 3239SOL     OW14563   0.823   4.307   7.806
 3239SOL    HW114564   0.830   4.226   7.755
 3239SOL    HW214565   0.741   4.347   7.778
 3240SOL     OW14566   1.571   4.342   8.655
 3240SOL    HW114567   1.505   4.339   8.725
 3240SOL    HW214568   1.623   4.263   8.667
 3241SOL     OW14569   0.279   5.271   9.169
 3241SOL    HW114570   0.187   5.263   9.147
 3241SOL    HW214571   0.300   5.190   9.217
 3242SOL     OW14572   0.618   4.230   8.662
 3242SOL    HW114573   0.590   4.139   8.650
 3242SOL    HW214574   0.682   4.244   8.592
 3243SOL     OW14575   0.969   5.388   8.903
 3243SOL    HW114576   0.924   5.340   8.833
 3243SOL    HW214577   0.949   5.480   8.885
 3244SOL     OW14578   0.438   4.185   7.625
 3244SOL    HW114579   0.503   4.251   7.649
 3244SOL    HW214580   0.467   4.105   7.668
 3245SOL     OW14581   0.149   4.877   8.891
 3245SOL    HW114582   0.142   4.832   8.976
 3245SOL    HW214583   0.158   4.806   8.827
 3246SOL     OW14584   1.316   4.756   8.629
 3246SOL    HW114585   1.318   4.693   8.557
 3246SOL    HW214586   1.262   4.828   8.596
 3247SOL     OW14587   1.342   4.505   7.795
 3247SOL    HW114588   1.250   4.490   7.818
 3247SOL    HW214589   1.340   4.525   7.701
 3248SOL     OW14590   1.730   5.466   8.593
 3248SOL    HW114591   1.809   5.480   8.541
 3248SOL    HW214592   1.713   5.372   8.585
 3249SOL     OW14593   1.253   5.447   8.493
 3249SOL    HW114594   1.336   5.493   8.492
 3249SOL    HW214595   1.273   5.361   8.531
 3250SOL     OW14596   0.117   4.904   8.499
 3250SOL    HW114597   0.076   4.957   8.567
 3250SOL    HW214598   0.108   4.956   8.419
 3251SOL     OW14599   0.647   5.430   9.188
 3251SOL    HW114600   0.569   5.480   9.212
 3251SOL    HW214601   0.659   5.447   9.095
 3252SOL     OW14602   1.755   3.909   7.954
 3252SOL    HW114603   1.798   3.887   7.871
 3252SOL    HW214604   1.719   3.826   7.985
 3253SOL     OW14605   1.386   5.341   7.931
 3253SOL    HW114606   1.421   5.389   7.855
 3253SOL    HW214607   1.328   5.404   7.974
 3254SOL     OW14608   0.097   5.556   9.365
 3254SOL    HW114609   0.062   5.486   9.420
 3254SOL    HW214610   0.177   5.584   9.410
 3255SOL     OW14611   1.269   4.659   8.075
 3255SOL    HW114612   1.338   4.597   8.051
 3255SOL    HW214613   1.300   4.744   8.043
 3256SOL     OW14614   0.770   4.992   8.862
 3256SOL    HW114615   0.754   5.047   8.939
 3256SOL    HW214616   0.692   5.002   8.808
 3257SOL     OW14617   0.707   5.350   7.596
 3257SOL    HW114618   0.715   5.384   7.507
 3257SOL    HW214619   0.648   5.275   7.587
 3258SOL     OW14620   1.617   5.461   8.857
 3258SOL    HW114621   1.658   5.462   8.770
 3258SOL    HW214622   1.614   5.553   8.883
 3259SOL     OW14623   1.867   3.892   8.434
 3259SOL    HW114624   1.887   3.812   8.385
 3259SOL    HW214625   1.776   3.911   8.411
 3260SOL     OW14626   0.328   4.033   8.238
 3260SOL    HW114627   0.296   3.991   8.159
 3260SOL    HW214628   0.255   4.027   8.300
 3261SOL     OW14629   1.223   5.350   7.508
 3261SOL    HW114630   1.192   5.265   7.541
 3261SOL    HW214631   1.171   5.364   7.428
 3262SOL     OW14632   0.806   4.714   8.839
 3262SOL    HW114633   0.853   4.709   8.756
 3262SOL    HW214634   0.791   4.808   8.853
 3263SOL     OW14635   0.977   4.683   7.756
 3263SOL    HW114636   1.033   4.705   7.682
 3263SOL    HW214637   1.012   4.599   7.788
 3264SOL     OW14638   1.504   5.316   7.509
 3264SOL    HW114639   1.408   5.322   7.503
 3264SOL    HW214640   1.534   5.346   7.423
 3265SOL     OW14641   0.374   5.039   8.945
 3265SOL    HW114642   0.363   5.113   8.885
 3265SOL    HW214643   0.300   4.982   8.927
 3266SOL     OW14644   1.610   5.015   8.733
 3266SOL    HW114645   1.648   4.979   8.813
 3266SOL    HW214646   1.547   5.081   8.764
 3267SOL     OW14647   1.106   4.840   8.214
 3267SOL    HW114648   1.023   4.803   8.243
 3267SOL    HW214649   1.144   4.773   8.157
 3268SOL     OW14650   1.042   3.943   8.374
 3268SOL    HW114651   0.998   3.885   8.312
 3268SOL    HW214652   1.093   3.885   8.430
 3269SOL     OW14653   0.624   5.244   7.918
 3269SOL    HW114654   0.674   5.184   7.863
 3269SOL    HW214655   0.534   5.237   7.885
 3270SOL     OW14656   1.685   4.102   8.718
 3270SOL    HW114657   1.760   4.042   8.717
 3270SOL    HW214658   1.612   4.048   8.749
 3271SOL     OW14659   0.156   4.732   9.131
 3271SOL    HW114660   0.106   4.702   9.206
 3271SOL    HW214661   0.246   4.739   9.163
 3272SOL     OW14662   0.690   3.992   8.928
 3272SOL    HW114663   0.776   3.956   8.907
 3272SOL    HW214664   0.629   3.918   8.916
 3273SOL     OW14665   0.042   4.139   7.519
 3273SOL    HW114666   0.094   4.063   7.546
 3273SOL    HW214667   0.076   4.161   7.432
 3274SOL     OW14668   1.415   4.601   8.839
 3274SOL    HW114669   1.363   4.648   8.774
 3274SOL    HW214670   1.504   4.599   8.802
 3275SOL     OW14671   0.012   3.870   7.853
 3275SOL    HW114672   0.072   3.925   7.801
 3275SOL    HW214673   0.066   3.840   7.927
 3276SOL     OW14674   1.137   5.093   7.576
 3276SOL    HW114675   1.043   5.080   7.562
 3276SOL    HW214676   1.150   5.071   7.669
 3277SOL     OW14677   0.624   4.503   8.829
 3277SOL    HW114678   0.676   4.582   8.842
 3277SOL    HW214679   0.677   4.433   8.866
 3278SOL     OW14680   1.497   5.577   8.482
 3278SOL    HW114681   1.529   5.627   8.407
 3278SOL    HW214682   1.575   5.537   8.520
 3279SOL     OW14683   1.447   4.900   9.073
 3279SOL    HW114684   1.443   4.931   9.164
 3279SOL    HW214685   1.537   4.917   9.046
 3280SOL     OW14686   0.336   5.496   9.026
 3280SOL    HW114687   0.245   5.526   9.019
 3280SOL    HW214688   0.329   5.411   9.070
 3281SOL     OW14689   1.660   4.606   8.685
 3281SOL    HW114690   1.635   4.519   8.654
 3281SOL    HW214691   1.641   4.664   8.611
 3282SOL     OW14692   1.248   4.065   7.876
 3282SOL    HW114693   1.312   3.995   7.869
 3282SOL    HW214694   1.273   4.113   7.955
 3283SOL     OW14695   0.563   4.497   8.141
 3283SOL    HW114696   0.610   4.576   8.115
 3283SOL    HW214697   0.514   4.472   8.063
 3284SOL     OW14698   1.731   4.025   9.032
 3284SOL    HW114699   1.673   4.017   8.955
 3284SOL    HW214700   1.683   3.981   9.102
 3285SOL     OW14701   1.750   4.668   8.934
 3285SOL    HW114702   1.743   4.763   8.939
 3285SOL    HW214703   1.724   4.647   8.844
 3286SOL     OW14704   0.866   5.077   7.518
 3286SOL    HW114705   0.816   5.093   7.598
 3286SOL    HW214706   0.819   5.126   7.450
 3287SOL     OW14707   0.668   5.531   8.362
 3287SOL    HW114708   0.658   5.625   8.346
 3287SOL    HW214709   0.763   5.517   8.361
 3288SOL     OW14710   0.880   4.712   8.315
 3288SOL    HW114711   0.918   4.630   8.347
 3288SOL    HW214712   0.832   4.747   8.390
 3289SOL     OW14713   1.137   4.729   7.530
 3289SOL    HW114714   1.084   4.748   7.453
 3289SOL    HW214715   1.181   4.647   7.508
 3290SOL     OW14716   1.802   5.290   8.287
 3290SOL    HW114717   1.727   5.283   8.229
 3290SOL    HW214718   1.775   5.244   8.367
 3291SOL     OW14719   0.261   5.028   9.323
 3291SOL    HW114720   0.170   5.021   9.293
 3291SOL    HW214721   0.256   5.016   9.417
 3292SOL     OW14722   0.087   4.795   8.095
 3292SOL    HW114723   0.015   4.850   8.127
 3292SOL    HW214724   0.153   4.858   8.064
 3293SOL     OW14725   0.709   5.166   9.077
 3293SOL    HW114726   0.642   5.110   9.117
 3293SOL    HW214727   0.696   5.252   9.118
 3294SOL     OW14728   1.887   3.913   8.710
 3294SOL    HW114729   1.853   3.836   8.754
 3294SOL    HW214730   1.873   3.896   8.617
 3295SOL     OW14731   0.489   4.156   8.044
 3295SOL    HW114732   0.527   4.081   7.997
 3295SOL    HW214733   0.425   4.117   8.104
 3296SOL     OW14734   1.692   5.197   8.529
 3296SOL    HW114735   1.617   5.173   8.475
 3296SOL    HW214736   1.692   5.133   8.600
 3297SOL     OW14737   0.344   4.299   8.739
 3297SOL    HW114738   0.383   4.246   8.807
 3297SOL    HW214739   0.348   4.245   8.660
 3298SOL     OW14740   0.851   5.311   8.126
 3298SOL    HW114741   0.830   5.389   8.074
 3298SOL    HW214742   0.770   5.260   8.125
 3299SOL     OW14743   1.416   3.963   8.549
 3299SOL    HW114744   1.354   3.890   8.557
 3299SOL    HW214745   1.381   4.030   8.607
 3300SOL     OW14746   1.215   3.781   8.524
 3300SOL    HW114747   1.181   3.736   8.602
 3300SOL    HW214748   1.248   3.710   8.468
 3301SOL     OW14749   0.782   5.056   7.786
 3301SOL    HW114750   0.752   4.965   7.794
 3301SOL    HW214751   0.860   5.061   7.841
 3302SOL     OW14752   0.617   5.292   8.742
 3302SOL    HW114753   0.621   5.363   8.807
 3302SOL    HW214754   0.702   5.296   8.698
 3303SOL     OW14755   1.338   3.764   7.614
 3303SOL    HW114756   1.335   3.730   7.524
 3303SOL    HW214757   1.264   3.721   7.658
 3304SOL     OW14758   1.320   4.208   8.104
 3304SOL    HW114759   1.257   4.281   8.102
 3304SOL    HW214760   1.299   4.161   8.184
 3305SOL     OW14761   1.608   3.934   8.361
 3305SOL    HW114762   1.545   3.944   8.433
 3305SOL    HW214763   1.579   3.997   8.295
 3306SOL     OW14764   0.059   4.748   7.814
 3306SOL    HW114765   0.146   4.723   7.781
 3306SOL    HW214766   0.066   4.741   7.909
 3307SOL     OW14767   0.902   5.383   7.785
 3307SOL    HW114768   0.833   5.365   7.721
 3307SOL    HW214769   0.859   5.436   7.852
 3308SOL     OW14770   0.271   4.399   9.432
 3308SOL    HW114771   0.234   4.348   9.505
 3308SOL    HW214772   0.348   4.350   9.404
 3309SOL     OW14773   1.740   4.269   9.538
 3309SOL    HW114774   1.658   4.292   9.493
 3309SOL    HW214775   1.713   4.211   9.609
 3310SOL     OW14776   0.257   5.387   9.803
 3310SOL    HW114777   0.205   5.467   9.816
 3310SOL    HW214778   0.327   5.414   9.744
 3311SOL     OW14779   0.282   5.136   9.901
 3311SOL    HW114780   0.258   5.224   9.872
 3311SOL    HW214781   0.199   5.090   9.907
 3312SOL     OW14782   0.141   4.345   9.920
 3312SOL    HW114783   0.127   4.351   9.826
 3312SOL    HW214784   0.088   4.270   9.947
 3313SOL     OW14785   1.805   5.550   9.720
 3313SOL    HW114786   1.856   5.497   9.781
 3313SOL    HW214787   1.761   5.615   9.776
 3314SOL     OW14788   9.982   5.358   9.522
 3314SOL    HW114789   9.977   5.285   9.460
 3314SOL    HW214790   9.990   5.316   9.608
 3315SOL     OW14791   1.704   4.602   9.917
 3315SOL    HW114792   1.780   4.618   9.974
 3315SOL    HW214793   1.699   4.679   9.861
 3316SOL     OW14794   1.740   4.831   9.762
 3316SOL    HW114795   1.808   4.808   9.699
 3316SOL    HW214796   1.787   4.882   9.829
 3317SOL     OW14797   0.681   4.997   9.937
 3317SOL    HW114798   0.604   4.949   9.971
 3317SOL    HW214799   0.644   5.067   9.884
 3318SOL     OW14800   0.820   3.770   9.758
 3318SOL    HW114801   0.841   3.826   9.833
 3318SOL    HW214802   0.726   3.783   9.744
 3319SOL     OW14803   1.577   4.782   9.527
 3319SOL    HW114804   1.510   4.717   9.549
 3319SOL    HW214805   1.619   4.803   9.610
 3320SOL     OW14806   1.581   5.390   9.622
 3320SOL    HW114807   1.645   5.460   9.635
 3320SOL    HW214808   1.561   5.392   9.529
 3321SOL     OW14809   9.987   4.627   0.119
 3321SOL    HW114810   0.069   4.579   0.110
 3321SOL    HW214811   0.006   4.697   0.182
 3322SOL     OW14812   0.880   4.117   9.550
 3322SOL    HW114813   0.862   4.051   9.482
 3322SOL    HW214814   0.814   4.102   9.617
 3323SOL     OW14815   1.258   4.809   9.811
 3323SOL    HW114816   1.347   4.829   9.840
 3323SOL    HW214817   1.232   4.885   9.759
 3324SOL     OW14818   0.990   5.177   9.784
 3324SOL    HW114819   0.959   5.254   9.736
 3324SOL    HW214820   0.939   5.176   9.865
 3325SOL     OW14821   0.303   5.466   0.177
 3325SOL    HW114822   0.340   5.386   0.140
 3325SOL    HW214823   0.357   5.483   0.255
 3326SOL     OW14824   0.314   4.643   9.559
 3326SOL    HW114825   0.397   4.656   9.512
 3326SOL    HW214826   0.283   4.557   9.529
 3327SOL     OW14827   1.172   5.434   9.590
 3327SOL    HW114828   1.079   5.428   9.609
 3327SOL    HW214829   1.182   5.398   9.502
 3328SOL     OW14830   1.670   5.127   9.399
 3328SOL    HW114831   1.625   5.210   9.389
 3328SOL    HW214832   1.605   5.061   9.378
 3329SOL     OW14833   0.485   5.448   9.645
 3329SOL    HW114834   0.528   5.512   9.701
 3329SOL    HW214835   0.551   5.425   9.579
 3330SOL     OW14836   1.410   3.870   9.722
 3330SOL    HW114837   1.400   3.810   9.648
 3330SOL    HW214838   1.362   3.829   9.794
 3331SOL     OW14839   0.416   4.342   9.921
 3331SOL    HW114840   0.442   4.255   9.889
 3331SOL    HW214841   0.321   4.344   9.911
 3332SOL     OW14842   0.494   3.873   9.435
 3332SOL    HW114843   0.526   3.949   9.483
 3332SOL    HW214844   0.572   3.834   9.396
 3333SOL     OW14845   0.552   3.829   9.733
 3333SOL    HW114846   0.502   3.844   9.814
 3333SOL    HW214847   0.554   3.914   9.690
 3334SOL     OW14848   1.449   4.957   9.347
 3334SOL    HW114849   1.479   4.891   9.409
 3334SOL    HW214850   1.359   4.977   9.375
 3335SOL     OW14851   0.283   3.717   9.510
 3335SOL    HW114852   0.355   3.778   9.494
 3335SOL    HW214853   0.323   3.645   9.560
 3336SOL     OW14854   0.450   4.862   0.018
 3336SOL    HW114855   0.381   4.895   0.076
 3336SOL    HW214856   0.405   4.844   9.935
 3337SOL     OW14857   1.300   5.552   9.928
 3337SOL    HW114858   1.339   5.615   9.867
 3337SOL    HW214859   1.206   5.569   9.921
 3338SOL     OW14860   1.033   4.309   9.407
 3338SOL    HW114861   0.977   4.371   9.361
 3338SOL    HW214862   0.972   4.242   9.439
 3339SOL     OW14863   1.927   4.471   9.592
 3339SOL    HW114864   1.938   4.454   9.685
 3339SOL    HW214865   1.854   4.415   9.565
 3340SOL     OW14866   0.512   5.154   9.455
 3340SOL    HW114867   0.441   5.122   9.510
 3340SOL    HW214868   0.499   5.111   9.371
 3341SOL     OW14869   1.482   4.249   9.386
 3341SOL    HW114870   1.410   4.290   9.435
 3341SOL    HW214871   1.488   4.161   9.422
 3342SOL     OW14872   0.749   4.817   9.682
 3342SOL    HW114873   0.761   4.816   9.777
 3342SOL    HW214874   0.821   4.766   9.647
 3343SOL     OW14875   0.309   4.823   9.778
 3343SOL    HW114876   0.320   4.899   9.721
 3343SOL    HW214877   0.314   4.748   9.718
 3344SOL     OW14878   1.218   5.058   9.691
 3344SOL    HW114879   1.279   5.130   9.709
 3344SOL    HW214880   1.134   5.090   9.724
 3345SOL     OW14881   1.669   4.331   9.894
 3345SOL    HW114882   1.596   4.309   9.951
 3345SOL    HW214883   1.668   4.427   9.891
 3346SOL     OW14884   1.242   4.196   9.544
 3346SOL    HW114885   1.257   4.110   9.505
 3346SOL    HW214886   1.176   4.236   9.488
 3347SOL     OW14887   0.385   3.822   9.958
 3347SOL    HW114888   0.298   3.792   9.931
 3347SOL    HW214889   0.408   3.767   0.032
 3348SOL     OW14890   1.650   4.093   9.727
 3348SOL    HW114891   1.638   4.008   9.770
 3348SOL    HW214892   1.646   4.156   9.798
 3349SOL     OW14893   1.510   4.002   9.487
 3349SOL    HW114894   1.465   3.917   9.490
 3349SOL    HW214895   1.538   4.017   9.578
 3350SOL     OW14896   1.255   4.527   9.349
 3350SOL    HW114897   1.192   4.456   9.332
 3350SOL    HW214898   1.291   4.548   9.263
 3351SOL     OW14899   0.027   5.031   9.532
 3351SOL    HW114900   0.002   5.037   9.440
 3351SOL    HW214901   0.030   4.936   9.549
 3352SOL     OW14902   1.369   4.619   9.594
 3352SOL    HW114903   1.299   4.655   9.647
 3352SOL    HW214904   1.324   4.578   9.520
 3353SOL     OW14905   1.693   3.835   9.844
 3353SOL    HW114906   1.683   3.764   9.780
 3353SOL    HW214907   1.623   3.820   9.908
 3354SOL     OW14908   1.356   5.300   9.744
 3354SOL    HW114909   1.439   5.320   9.700
 3354SOL    HW214910   1.290   5.348   9.693
 3355SOL     OW14911   0.685   5.365   9.458
 3355SOL    HW114912   0.688   5.384   9.364
 3355SOL    HW214913   0.634   5.284   9.464
 3356SOL     OW14914   1.225   5.326   9.345
 3356SOL    HW114915   1.215   5.233   9.363
 3356SOL    HW214916   1.157   5.346   9.281
 3357SOL     OW14917   0.915   4.632   9.539
 3357SOL    HW114918   0.993   4.684   9.524
 3357SOL    HW214919   0.892   4.596   9.454
 3358SOL     OW14920   1.501   5.377   9.358
 3358SOL    HW114921   1.409   5.356   9.341
 3358SOL    HW214922   1.542   5.376   9.271
 3359SOL     OW14923   0.593   5.199   9.772
 3359SOL    HW114924   0.638   5.169   9.693
 3359SOL    HW214925   0.532   5.267   9.740
 3360SOL     OW14926   0.293   5.065   9.620
 3360SOL    HW114927   0.199   5.071   9.606
 3360SOL    HW214928   0.307   5.104   9.707
 3361SOL     OW14929   0.100   4.041   9.287
 3361SOL    HW114930   0.017   4.004   9.255
 3361SOL    HW214931   0.130   4.096   9.215
 3362SOL     OW14932   0.058   3.870   9.567
 3362SOL    HW114933   0.102   3.955   9.571
 3362SOL    HW214934   0.129   3.806   9.561
 3363SOL     OW14935   1.185   5.062   9.412
 3363SOL    HW114936   1.090   5.057   9.398
 3363SOL    HW214937   1.196   5.040   9.505
 3364SOL     OW14938   0.619   4.526   9.910
 3364SOL    HW114939   0.625   4.572   9.994
 3364SOL    HW214940   0.546   4.465   9.921
 3365SOL     OW14941   0.915   5.108   9.373
 3365SOL    HW114942   0.861   5.112   9.452
 3365SOL    HW214943   0.903   5.194   9.331
 3366SOL     OW14944   1.131   4.760   9.430
 3366SOL    HW114945   1.096   4.798   9.349
 3366SOL    HW214946   1.180   4.683   9.400
 3367SOL     OW14947   0.084   4.942   9.907
 3367SOL    HW114948   0.027   4.882   9.955
 3367SOL    HW214949   0.149   4.886   9.866
 3368SOL     OW14950   0.512   4.097   9.853
 3368SOL    HW114951   0.534   4.092   9.760
 3368SOL    HW214952   0.595   4.080   9.897
 3369SOL     OW14953   0.788   5.080   9.611
 3369SOL    HW114954   0.756   4.990   9.623
 3369SOL    HW214955   0.856   5.090   9.678
 3370SOL     OW14956   1.400   3.748   9.468
 3370SOL    HW114957   1.447   3.717   9.390
 3370SOL    HW214958   1.321   3.695   9.471
 3371SOL     OW14959   0.067   4.767   9.584
 3371SOL    HW114960   0.152   4.731   9.559
 3371SOL    HW214961   0.029   4.702   9.643
 3372SOL     OW14962   0.903   5.393   9.638
 3372SOL    HW114963   0.830   5.378   9.577
 3372SOL    HW214964   0.873   5.463   9.695
 3373SOL     OW14965   0.169   6.166   0.015
 3373SOL    HW114966   0.137   6.161   0.105
 3373SOL    HW214967   0.264   6.166   0.023
 3374SOL     OW14968   0.169   5.816   1.019
 3374SOL    HW114969   0.231   5.815   1.092
 3374SOL    HW214970   0.083   5.819   1.061
 3375SOL     OW14971   0.002   5.994   0.673
 3375SOL    HW114972   9.956   6.023   0.751
 3375SOL    HW214973   9.936   5.946   0.623
 3376SOL     OW14974   0.604   6.891   1.204
 3376SOL    HW114975   0.530   6.890   1.142
 3376SOL    HW214976   0.605   6.979   1.240
 3377SOL     OW14977   1.562   7.110   0.724
 3377SOL    HW114978   1.517   7.060   0.791
 3377SOL    HW214979   1.495   7.131   0.659
 3378SOL     OW14980   1.127   6.277   0.674
 3378SOL    HW114981   1.182   6.347   0.638
 3378SOL    HW214982   1.071   6.321   0.738
 3379SOL     OW14983   1.783   6.092   0.174
 3379SOL    HW114984   1.729   6.160   0.134
 3379SOL    HW214985   1.727   6.053   0.241
 3380SOL     OW14986   0.807   6.722   1.122
 3380SOL    HW114987   0.728   6.763   1.158
 3380SOL    HW214988   0.838   6.784   1.056
 3381SOL     OW14989   0.895   6.330   1.853
 3381SOL    HW114990   0.888   6.381   1.934
 3381SOL    HW214991   0.898   6.395   1.783
 3382SOL     OW14992   0.792   6.715   0.673
 3382SOL    HW114993   0.748   6.630   0.679
 3382SOL    HW214994   0.722   6.775   0.646
 3383SOL     OW14995   0.729   6.750   1.873
 3383SOL    HW114996   0.738   6.793   1.957
 3383SOL    HW214997   0.661   6.799   1.827
 3384SOL     OW14998   0.401   6.947   1.014
 3384SOL    HW114999   0.316   6.983   0.988
 3384SOL    HW215000   0.434   6.903   0.935
 3385SOL     OW15001   1.497   7.108   1.355
 3385SOL    HW115002   1.542   7.189   1.380
 3385SOL    HW215003   1.409   7.119   1.390
 3386SOL     OW15004   0.447   5.970   1.485
 3386SOL    HW115005   0.493   5.893   1.517
 3386SOL    HW215006   0.355   5.945   1.486
 3387SOL     OW15007   1.563   6.026   0.782
 3387SOL    HW115008   1.488   6.042   0.724
 3387SOL    HW215009   1.543   6.077   0.861
 3388SOL     OW15010   0.186   7.206   0.432
 3388SOL    HW115011   0.151   7.275   0.489
 3388SOL    HW215012   0.247   7.252   0.374
 3389SOL     OW15013   1.189   6.928   1.743
 3389SOL    HW115014   1.183   7.002   1.804
 3389SOL    HW215015   1.110   6.878   1.760
 3390SOL     OW15016   0.633   7.344   1.518
 3390SOL    HW115017   0.538   7.330   1.521
 3390SOL    HW215018   0.642   7.438   1.506
 3391SOL     OW15019   0.670   6.612   0.054
 3391SOL    HW115020   0.670   6.696   0.008
 3391SOL    HW215021   0.696   6.633   0.143
 3392SOL     OW15022   1.646   5.717   1.432
 3392SOL    HW115023   1.561   5.756   1.454
 3392SOL    HW215024   1.698   5.729   1.512
 3393SOL     OW15025   0.048   6.225   0.526
 3393SOL    HW115026   0.038   6.145   0.577
 3393SOL    HW215027   0.045   6.295   0.591
 3394SOL     OW15028   1.890   7.359   0.335
 3394SOL    HW115029   1.809   7.354   0.384
 3394SOL    HW215030   1.909   7.453   0.330
 3395SOL     OW15031   9.939   7.116   0.188
 3395SOL    HW115032   9.895   7.031   0.196
 3395SOL    HW215033   0.029   7.100   0.217
 3396SOL     OW15034   1.684   6.525   0.621
 3396SOL    HW115035   1.730   6.464   0.563
 3396SOL    HW215036   1.657   6.597   0.564
 3397SOL     OW15037   1.662   6.719   0.426
 3397SOL    HW115038   1.742   6.698   0.378
 3397SOL    HW215039   1.682   6.801   0.471
 3398SOL     OW15040   0.183   6.364   1.531
 3398SOL    HW115041   0.273   6.354   1.560
 3398SOL    HW215042   0.151   6.442   1.578
 3399SOL     OW15043   0.639   7.058   0.807
 3399SOL    HW115044   0.576   6.986   0.805
 3399SOL    HW215045   0.653   7.080   0.715
 3400SOL     OW15046   1.267   6.834   1.394
 3400SOL    HW115047   1.303   6.765   1.338
 3400SOL    HW215048   1.310   6.821   1.479
 3401SOL     OW15049   0.824   5.599   0.532
 3401SOL    HW115050   0.874   5.670   0.492
 3401SOL    HW215051   0.738   5.638   0.550
 3402SOL     OW15052   0.144   6.526   1.284
 3402SOL    HW115053   0.229   6.490   1.260
 3402SOL    HW215054   0.103   6.458   1.338
 3403SOL     OW15055   1.538   6.585   0.215
 3403SOL    HW115056   1.475   6.520   0.245
 3403SOL    HW215057   1.568   6.629   0.295
 3404SOL     OW15058   1.197   7.419   1.675
 3404SOL    HW115059   1.186   7.474   1.597
 3404SOL    HW215060   1.162   7.334   1.650
 3405SOL     OW15061   1.455   6.945   0.927
 3405SOL    HW115062   1.379   6.979   0.974
 3405SOL    HW215063   1.427   6.858   0.897
 3406SOL     OW15064   1.652   7.339   0.477
 3406SOL    HW115065   1.587   7.409   0.481
 3406SOL    HW215066   1.626   7.278   0.545
 3407SOL     OW15067   1.241   5.952   0.918
 3407SOL    HW115068   1.181   5.878   0.923
 3407SOL    HW215069   1.217   6.008   0.992
 3408SOL     OW15070   1.538   7.223   0.248
 3408SOL    HW115071   1.590   7.265   0.316
 3408SOL    HW215072   1.491   7.295   0.206
 3409SOL     OW15073   0.815   6.208   1.416
 3409SOL    HW115074   0.791   6.173   1.501
 3409SOL    HW215075   0.782   6.144   1.353
 3410SOL     OW15076   1.426   6.052   1.672
 3410SOL    HW115077   1.448   6.060   1.765
 3410SOL    HW215078   1.332   6.035   1.671
 3411SOL     OW15079   0.962   6.486   1.610
 3411SOL    HW115080   1.009   6.410   1.576
 3411SOL    HW215081   0.920   6.525   1.533
 3412SOL     OW15082   0.994   5.924   1.186
 3412SOL    HW115083   0.907   5.964   1.194
 3412SOL    HW215084   1.052   5.997   1.162
 3413SOL     OW15085   1.044   6.252   0.404
 3413SOL    HW115086   1.055   6.250   0.499
 3413SOL    HW215087   0.957   6.215   0.389
 3414SOL     OW15088   0.025   6.389   0.750
 3414SOL    HW115089   0.068   6.342   0.821
 3414SOL    HW215090   0.062   6.477   0.753
 3415SOL     OW15091   0.179   7.480   1.623
 3415SOL    HW115092   0.120   7.405   1.636
 3415SOL    HW215093   0.124   7.546   1.580
 3416SOL     OW15094   0.848   5.881   0.204
 3416SOL    HW115095   0.823   5.953   0.146
 3416SOL    HW215096   0.865   5.808   0.146
 3417SOL     OW15097   1.414   6.730   0.572
 3417SOL    HW115098   1.494   6.738   0.520
 3417SOL    HW215099   1.356   6.798   0.537
 3418SOL     OW15100   0.625   5.704   0.982
 3418SOL    HW115101   0.620   5.742   1.069
 3418SOL    HW215102   0.573   5.763   0.927
 3419SOL     OW15103   1.020   7.033   0.439
 3419SOL    HW115104   0.991   7.115   0.398
 3419SOL    HW215105   0.994   7.041   0.530
 3420SOL     OW15106   0.448   7.431   0.932
 3420SOL    HW115107   0.412   7.445   0.845
 3420SOL    HW215108   0.478   7.518   0.959
 3421SOL     OW15109   1.819   6.623   0.836
 3421SOL    HW115110   1.762   6.594   0.764
 3421SOL    HW215111   1.760   6.637   0.910
 3422SOL     OW15112   1.240   7.141   1.452
 3422SOL    HW115113   1.211   7.089   1.527
 3422SOL    HW215114   1.163   7.190   1.425
 3423SOL     OW15115   1.482   6.338   0.668
 3423SOL    HW115116   1.398   6.384   0.675
 3423SOL    HW215117   1.547   6.407   0.678
 3424SOL     OW15118   0.525   6.874   1.721
 3424SOL    HW115119   0.483   6.880   1.635
 3424SOL    HW215120   0.452   6.877   1.783
 3425SOL     OW15121   1.103   7.337   0.175
 3425SOL    HW115122   1.045   7.341   0.251
 3425SOL    HW215123   1.109   7.244   0.154
 3426SOL     OW15124   0.177   5.915   1.438
 3426SOL    HW115125   0.140   5.998   1.405
 3426SOL    HW215126   0.109   5.880   1.495
 3427SOL     OW15127   1.662   6.989   0.138
 3427SOL    HW115128   1.615   7.062   0.178
 3427SOL    HW215129   1.593   6.934   0.100
 3428SOL     OW15130   0.651   7.291   0.305
 3428SOL    HW115131   0.615   7.325   0.387
 3428SOL    HW215132   0.656   7.368   0.248
 3429SOL     OW15133   1.418   5.697   0.454
 3429SOL    HW115134   1.415   5.677   0.361
 3429SOL    HW215135   1.511   5.714   0.472
 3430SOL     OW15136   0.218   7.383   1.278
 3430SOL    HW115137   0.280   7.333   1.331
 3430SOL    HW215138   0.222   7.344   1.191
 3431SOL     OW15139   0.628   5.579   0.139
 3431SOL    HW115140   0.712   5.620   0.117
 3431SOL    HW215141   0.563   5.638   0.102
 3432SOL     OW15142   0.747   5.852   1.739
 3432SOL    HW115143   0.838   5.826   1.752
 3432SOL    HW215144   0.698   5.807   1.807
 3433SOL     OW15145   0.876   7.105   1.185
 3433SOL    HW115146   0.862   7.062   1.101
 3433SOL    HW215147   0.927   7.043   1.237
 3434SOL     OW15148   1.481   6.170   1.428
 3434SOL    HW115149   1.459   6.135   1.514
 3434SOL    HW215150   1.442   6.257   1.426
 3435SOL     OW15151   0.853   6.951   0.957
 3435SOL    HW115152   0.931   6.944   0.902
 3435SOL    HW215153   0.782   6.971   0.897
 3436SOL     OW15154   0.928   6.019   0.848
 3436SOL    HW115155   0.884   6.012   0.764
 3436SOL    HW215156   1.002   6.078   0.831
 3437SOL     OW15157   0.567   5.713   0.560
 3437SOL    HW115158   0.508   5.691   0.632
 3437SOL    HW215159   0.550   5.806   0.543
 3438SOL     OW15160   1.455   6.768   0.029
 3438SOL    HW115161   1.482   6.698   0.089
 3438SOL    HW215162   1.377   6.806   0.070
 3439SOL     OW15163   0.981   5.794   0.427
 3439SOL    HW115164   0.933   5.837   0.357
 3439SOL    HW215165   1.062   5.845   0.436
 3440SOL     OW15166   1.082   6.248   1.480
 3440SOL    HW115167   0.992   6.231   1.454
 3440SOL    HW215168   1.128   6.263   1.397
 3441SOL     OW15169   1.234   7.143   0.786
 3441SOL    HW115170   1.206   7.207   0.721
 3441SOL    HW215171   1.239   7.192   0.868
 3442SOL     OW15172   1.186   7.351   0.596
 3442SOL    HW115173   1.210   7.442   0.581
 3442SOL    HW215174   1.091   7.353   0.611
 3443SOL     OW15175   1.136   6.081   9.981
 3443SOL    HW115176   1.043   6.057   9.985
 3443SOL    HW215177   1.160   6.098   0.072
 3444SOL     OW15178   0.125   6.173   1.335
 3444SOL    HW115179   0.217   6.168   1.309
 3444SOL    HW215180   0.124   6.236   1.407
 3445SOL     OW15181   0.587   5.817   1.232
 3445SOL    HW115182   0.614   5.790   1.320
 3445SOL    HW215183   0.492   5.810   1.233
 3446SOL     OW15184   0.792   6.043   0.618
 3446SOL    HW115185   0.726   6.106   0.646
 3446SOL    HW215186   0.799   6.055   0.523
 3447SOL     OW15187   1.060   5.615   0.714
 3447SOL    HW115188   0.989   5.637   0.655
 3447SOL    HW215189   1.055   5.681   0.783
 3448SOL     OW15190   1.390   6.676   0.854
 3448SOL    HW115191   1.309   6.627   0.869
 3448SOL    HW215192   1.391   6.692   0.760
 3449SOL     OW15193   1.464   6.158   1.009
 3449SOL    HW115194   1.379   6.118   1.031
 3449SOL    HW215195   1.445   6.251   1.004
 3450SOL     OW15196   1.792   6.368   0.414
 3450SOL    HW115197   1.853   6.305   0.453
 3450SOL    HW215198   1.711   6.319   0.402
 3451SOL     OW15199   0.386   6.992   0.237
 3451SOL    HW115200   0.292   6.996   0.253
 3451SOL    HW215201   0.394   6.942   0.156
 3452SOL     OW15202   1.727   6.926   0.584
 3452SOL    HW115203   1.805   6.908   0.637
 3452SOL    HW215204   1.678   6.992   0.635
 3453SOL     OW15205   1.447   6.175   0.092
 3453SOL    HW115206   1.379   6.170   0.160
 3453SOL    HW215207   1.425   6.106   0.031
 3454SOL     OW15208   0.561   5.851   0.249
 3454SOL    HW115209   0.647   5.824   0.279
 3454SOL    HW215210   0.571   5.942   0.223
 3455SOL     OW15211   1.786   6.853   1.687
 3455SOL    HW115212   1.836   6.779   1.722
 3455SOL    HW215213   1.727   6.878   1.758
 3456SOL     OW15214   1.012   6.906   1.314
 3456SOL    HW115215   0.943   6.891   1.379
 3456SOL    HW215216   1.093   6.886   1.361
 3457SOL     OW15217   1.587   7.171   1.669
 3457SOL    HW115218   1.565   7.231   1.598
 3457SOL    HW215219   1.681   7.157   1.660
 3458SOL     OW15220   1.148   6.784   1.100
 3458SOL    HW115221   1.076   6.814   1.155
 3458SOL    HW215222   1.124   6.811   1.011
 3459SOL     OW15223   1.619   6.658   1.025
 3459SOL    HW115224   1.591   6.729   1.083
 3459SOL    HW215225   1.545   6.645   0.966
 3460SOL     OW15226   0.938   5.662   1.403
 3460SOL    HW115227   0.946   5.647   1.309
 3460SOL    HW215228   1.010   5.721   1.425
 3461SOL     OW15229   0.990   6.712   1.781
 3461SOL    HW115230   0.901   6.731   1.812
 3461SOL    HW215231   0.978   6.641   1.718
 3462SOL     OW15232   0.717   6.597   0.336
 3462SOL    HW115233   0.677   6.521   0.380
 3462SOL    HW215234   0.811   6.578   0.336
 3463SOL     OW15235   0.407   6.411   1.244
 3463SOL    HW115236   0.473   6.433   1.309
 3463SOL    HW215237   0.396   6.316   1.251
 3464SOL     OW15238   1.322   5.967   1.298
 3464SOL    HW115239   1.378   6.033   1.339
 3464SOL    HW215240   1.267   6.016   1.237
 3465SOL     OW15241   0.068   7.135   1.301
 3465SOL    HW115242   0.073   7.229   1.312
 3465SOL    HW215243   0.159   7.107   1.289
 3466SOL     OW15244   0.688   6.135   0.944
 3466SOL    HW115245   0.661   6.186   0.868
 3466SOL    HW215246   0.765   6.087   0.915
 3467SOL     OW15247   1.274   6.934   0.450
 3467SOL    HW115248   1.319   7.013   0.479
 3467SOL    HW215249   1.181   6.957   0.450
 3468SOL     OW15250   1.290   7.018   1.150
 3468SOL    HW115251   1.291   7.024   1.245
 3468SOL    HW215252   1.235   6.942   1.131
 3469SOL     OW15253   1.546   6.232   0.423
 3469SOL    HW115254   1.523   6.250   0.514
 3469SOL    HW215255   1.481   6.281   0.372
 3470SOL     OW15256   0.352   7.084   1.267
 3470SOL    HW115257   0.360   7.045   1.180
 3470SOL    HW215258   0.435   7.129   1.281
 3471SOL     OW15259   0.456   6.323   1.599
 3471SOL    HW115260   0.516   6.363   1.537
 3471SOL    HW215261   0.480   6.230   1.600
 3472SOL     OW15262   1.649   6.400   1.655
 3472SOL    HW115263   1.634   6.331   1.720
 3472SOL    HW215264   1.562   6.439   1.642
 3473SOL     OW15265   1.006   5.783   1.796
 3473SOL    HW115266   1.077   5.828   1.751
 3473SOL    HW215267   1.043   5.699   1.823
 3474SOL     OW15268   0.468   5.614   1.740
 3474SOL    HW115269   0.421   5.563   1.674
 3474SOL    HW215270   0.405   5.681   1.768
 3475SOL     OW15271   0.567   6.503   1.037
 3475SOL    HW115272   0.521   6.569   0.985
 3475SOL    HW215273   0.505   6.478   1.105
 3476SOL     OW15274   1.385   6.413   1.073
 3476SOL    HW115275   1.322   6.438   1.005
 3476SOL    HW215276   1.333   6.365   1.138
 3477SOL     OW15277   1.221   6.112   0.246
 3477SOL    HW115278   1.228   6.037   0.305
 3477SOL    HW215279   1.162   6.172   0.292
 3478SOL     OW15280   0.318   5.769   1.253
 3478SOL    HW115281   0.264   5.810   1.320
 3478SOL    HW215282   0.280   5.682   1.242
 3479SOL     OW15283   9.941   6.894   1.337
 3479SOL    HW115284   0.010   6.850   1.387
 3479SOL    HW215285   9.977   6.981   1.319
 3480SOL     OW15286   1.750   6.533   1.876
 3480SOL    HW115287   1.723   6.490   1.795
 3480SOL    HW215288   1.669   6.571   1.911
 3481SOL     OW15289   0.355   5.674   0.741
 3481SOL    HW115290   0.330   5.763   0.763
 3481SOL    HW215291   0.285   5.642   0.685
 3482SOL     OW15292   1.612   5.971   0.348
 3482SOL    HW115293   1.622   5.918   0.428
 3482SOL    HW215294   1.574   6.053   0.379
 3483SOL     OW15295   0.979   7.186   1.661
 3483SOL    HW115296   0.974   7.219   1.571
 3483SOL    HW215297   0.903   7.129   1.669
 3484SOL     OW15298   1.861   7.150   1.595
 3484SOL    HW115299   1.858   7.239   1.559
 3484SOL    HW215300   1.931   7.153   1.660
 3485SOL     OW15301   0.388   6.527   1.780
 3485SOL    HW115302   0.452   6.536   1.850
 3485SOL    HW215303   0.422   6.455   1.726
 3486SOL     OW15304   1.587   5.795   0.131
 3486SOL    HW115305   1.507   5.746   0.148
 3486SOL    HW215306   1.587   5.865   0.196
 3487SOL     OW15307   1.347   6.419   9.985
 3487SOL    HW115308   1.397   6.345   0.020
 3487SOL    HW215309   1.368   6.420   9.892
 3488SOL     OW15310   1.109   6.895   0.853
 3488SOL    HW115311   1.098   6.831   0.782
 3488SOL    HW215312   1.140   6.974   0.809
 3489SOL     OW15313   0.212   6.378   0.964
 3489SOL    HW115314   0.202   6.460   0.915
 3489SOL    HW215315   0.294   6.388   1.011
 3490SOL     OW15316   0.434   6.031   1.022
 3490SOL    HW115317   0.373   6.024   0.949
 3490SOL    HW215318   0.513   6.071   0.983
 3491SOL     OW15319   1.147   6.031   1.656
 3491SOL    HW115320   1.112   6.055   1.741
 3491SOL    HW215321   1.121   6.102   1.598
 3492SOL     OW15322   1.175   5.808   1.488
 3492SOL    HW115323   1.156   5.882   1.545
 3492SOL    HW215324   1.216   5.846   1.410
 3493SOL     OW15325   0.237   7.268   1.028
 3493SOL    HW115326   0.220   7.196   0.968
 3493SOL    HW215327   0.304   7.321   0.984
 3494SOL     OW15328   0.026   6.191   1.056
 3494SOL    HW115329   0.091   6.256   1.030
 3494SOL    HW215330   0.039   6.180   1.150
 3495SOL     OW15331   1.405   6.522   1.639
 3495SOL    HW115332   1.397   6.617   1.638
 3495SOL    HW215333   1.379   6.495   1.551
 3496SOL     OW15334   0.791   6.158   0.367
 3496SOL    HW115335   0.734   6.121   0.299
 3496SOL    HW215336   0.742   6.233   0.401
 3497SOL     OW15337   1.646   6.217   1.209
 3497SOL    HW115338   1.594   6.200   1.288
 3497SOL    HW215339   1.586   6.198   1.136
 3498SOL     OW15340   0.315   7.155   1.756
 3498SOL    HW115341   0.353   7.221   1.814
 3498SOL    HW215342   0.332   7.072   1.800
 3499SOL     OW15343   0.737   6.047   1.203
 3499SOL    HW115344   0.681   5.970   1.216
 3499SOL    HW215345   0.707   6.084   1.120
 3500SOL     OW15346   0.994   7.269   1.393
 3500SOL    HW115347   0.956   7.230   1.315
 3500SOL    HW215348   0.962   7.360   1.392
 3501SOL     OW15349   0.154   6.750   1.441
 3501SOL    HW115350   0.145   6.704   1.524
 3501SOL    HW215351   0.156   6.680   1.375
 3502SOL     OW15352   1.368   6.655   1.205
 3502SOL    HW115353   1.389   6.581   1.147
 3502SOL    HW215354   1.293   6.697   1.162
 3503SOL     OW15355   1.347   6.417   0.333
 3503SOL    HW115356   1.308   6.438   0.417
 3503SOL    HW215357   1.276   6.427   0.270
 3504SOL     OW15358   1.754   7.321   1.176
 3504SOL    HW115359   1.832   7.339   1.123
 3504SOL    HW215360   1.681   7.336   1.117
 3505SOL     OW15361   1.289   7.268   1.033
 3505SOL    HW115362   1.377   7.301   1.053
 3505SOL    HW215363   1.284   7.185   1.081
 3506SOL     OW15364   0.035   6.733   0.997
 3506SOL    HW115365   0.060   6.822   0.973
 3506SOL    HW215366   0.080   6.678   0.933
 3507SOL     OW15367   0.693   7.310   1.800
 3507SOL    HW115368   0.608   7.322   1.841
 3507SOL    HW215369   0.678   7.328   1.707
 3508SOL     OW15370   0.891   5.647   0.066
 3508SOL    HW115371   0.881   5.621   9.975
 3508SOL    HW215372   0.963   5.594   0.099
 3509SOL     OW15373   1.705   5.752   0.510
 3509SOL    HW115374   1.770   5.739   0.442
 3509SOL    HW215375   1.696   5.665   0.551
 3510SOL     OW15376   1.392   7.181   0.510
 3510SOL    HW115377   1.409   7.203   0.418
 3510SOL    HW215378   1.320   7.239   0.535
 3511SOL     OW15379   1.259   6.507   0.586
 3511SOL    HW115380   1.320   6.580   0.575
 3511SOL    HW215381   1.178   6.547   0.616
 3512SOL     OW15382   0.780   6.880   1.469
 3512SOL    HW115383   0.769   6.934   1.547
 3512SOL    HW215384   0.697   6.888   1.422
 3513SOL     OW15385   0.698   7.162   0.061
 3513SOL    HW115386   0.668   7.234   0.006
 3513SOL    HW215387   0.670   7.186   0.149
 3514SOL     OW15388   1.649   7.328   1.429
 3514SOL    HW115389   1.690   7.324   1.343
 3514SOL    HW215390   1.657   7.420   1.455
 3515SOL     OW15391   1.816   5.691   0.969
 3515SOL    HW115392   1.815   5.716   1.061
 3515SOL    HW215393   1.730   5.718   0.935
 3516SOL     OW15394   0.252   5.931   0.788
 3516SOL    HW115395   0.174   5.958   0.740
 3516SOL    HW215396   0.218   5.896   0.870
 3517SOL     OW15397   1.189   7.103   0.057
 3517SOL    HW115398   1.212   7.022   0.102
 3517SOL    HW215399   1.120   7.078   9.995
 3518SOL     OW15400   0.836   6.621   1.387
 3518SOL    HW115401   0.840   6.652   1.297
 3518SOL    HW215402   0.816   6.699   1.439
 3519SOL     OW15403   0.977   6.514   0.331
 3519SOL    HW115404   1.034   6.530   0.256
 3519SOL    HW215405   0.996   6.424   0.357
 3520SOL     OW15406   0.387   6.903   1.482
 3520SOL    HW115407   0.373   6.975   1.420
 3520SOL    HW215408   0.309   6.849   1.472
 3521SOL     OW15409   1.622   6.867   1.389
 3521SOL    HW115410   1.564   6.793   1.373
 3521SOL    HW215411   1.567   6.944   1.373
 3522SOL     OW15412   1.059   6.660   0.702
 3522SOL    HW115413   0.971   6.688   0.677
 3522SOL    HW215414   1.044   6.586   0.760
 3523SOL     OW15415   1.027   5.775   0.934
 3523SOL    HW115416   0.976   5.854   0.916
 3523SOL    HW215417   1.007   5.753   1.026
 3524SOL     OW15418   0.688   7.086   0.533
 3524SOL    HW115419   0.649   6.999   0.540
 3524SOL    HW215420   0.661   7.119   0.447
 3525SOL     OW15421   0.129   6.949   0.324
 3525SOL    HW115422   0.046   6.902   0.318
 3525SOL    HW215423   0.114   7.017   0.390
 3526SOL     OW15424   0.147   6.609   1.681
 3526SOL    HW115425   0.106   6.684   1.724
 3526SOL    HW215426   0.235   6.603   1.720
 3527SOL     OW15427   0.682   5.739   1.485
 3527SOL    HW115428   0.770   5.715   1.456
 3527SOL    HW215429   0.695   5.782   1.569
 3528SOL     OW15430   9.929   5.931   9.933
 3528SOL    HW115431   9.929   5.966   0.022
 3528SOL    HW215432   0.019   5.943   9.903
 3529SOL     OW15433   1.372   6.433   1.384
 3529SOL    HW115434   1.305   6.382   1.339
 3529SOL    HW215435   1.385   6.511   1.330
 3530SOL     OW15436   0.125   5.683   0.222
 3530SOL    HW115437   0.162   5.734   0.294
 3530SOL    HW215438   0.187   5.611   0.211
 3531SOL     OW15439   1.239   6.860   0.181
 3531SOL    HW115440   1.158   6.809   0.181
 3531SOL    HW215441   1.255   6.878   0.274
 3532SOL     OW15442   0.638   6.421   1.410
 3532SOL    HW115443   0.692   6.500   1.413
 3532SOL    HW215444   0.701   6.349   1.415
 3533SOL     OW15445   1.555   7.385   0.992
 3533SOL    HW115446   1.528   7.358   0.904
 3533SOL    HW215447   1.567   7.480   0.985
 3534SOL     OW15448   0.762   6.127   1.668
 3534SOL    HW115449   0.782   6.177   1.747
 3534SOL    HW215450   0.748   6.037   1.700
 3535SOL     OW15451   1.401   6.800   1.635
 3535SOL    HW115452   1.325   6.839   1.678
 3535SOL    HW215453   1.474   6.859   1.655
 3536SOL     OW15454   0.365   7.301   1.525
 3536SOL    HW115455   0.306   7.372   1.549
 3536SOL    HW215456   0.353   7.235   1.593
 3537SOL     OW15457   1.756   6.480   1.213
 3537SOL    HW115458   1.719   6.392   1.208
 3537SOL    HW215459   1.706   6.531   1.149
 3538SOL     OW15460   1.239   5.914   0.443
 3538SOL    HW115461   1.295   5.837   0.454
 3538SOL    HW215462   1.255   5.967   0.521
 3539SOL     OW15463   0.638   6.258   0.705
 3539SOL    HW115464   0.687   6.330   0.666
 3539SOL    HW215465   0.568   6.240   0.643
 3540SOL     OW15466   1.832   6.520   1.483
 3540SOL    HW115467   1.763   6.483   1.538
 3540SOL    HW215468   1.798   6.512   1.394
 3541SOL     OW15469   0.902   6.983   0.047
 3541SOL    HW115470   0.893   6.925   0.122
 3541SOL    HW215471   0.824   7.038   0.050
 3542SOL     OW15472   1.141   6.542   0.112
 3542SOL    HW115473   1.079   6.569   0.044
 3542SOL    HW215474   1.214   6.502   0.064
 3543SOL     OW15475   1.790   7.141   0.902
 3543SOL    HW115476   1.724   7.142   0.833
 3543SOL    HW215477   1.744   7.111   0.980
 3544SOL     OW15478   0.287   6.887   1.861
 3544SOL    HW115479   0.201   6.887   1.818
 3544SOL    HW215480   0.266   6.882   1.954
 3545SOL     OW15481   0.736   7.049   1.694
 3545SOL    HW115482   0.663   6.989   1.711
 3545SOL    HW215483   0.709   7.131   1.735
 3546SOL     OW15484   1.824   5.782   1.223
 3546SOL    HW115485   1.763   5.764   1.294
 3546SOL    HW215486   1.835   5.877   1.224
 3547SOL     OW15487   0.439   5.970   0.572
 3547SOL    HW115488   0.458   6.057   0.537
 3547SOL    HW215489   0.389   5.988   0.652
 3548SOL     OW15490   1.636   7.041   1.112
 3548SOL    HW115491   1.573   7.005   1.049
 3548SOL    HW215492   1.582   7.068   1.186
 3549SOL     OW15493   0.392   6.139   1.273
 3549SOL    HW115494   0.424   6.080   1.341
 3549SOL    HW215495   0.405   6.091   1.191
 3550SOL     OW15496   0.919   7.109   0.680
 3550SOL    HW115497   0.931   7.204   0.673
 3550SOL    HW215498   0.836   7.092   0.636
 3551SOL     OW15499   1.400   5.748   1.142
 3551SOL    HW115500   1.324   5.690   1.149
 3551SOL    HW215501   1.376   5.825   1.195
 3552SOL     OW15502   0.996   5.570   1.149
 3552SOL    HW115503   0.952   5.523   1.078
 3552SOL    HW215504   1.087   5.541   1.145
 3553SOL     OW15505   0.879   6.840   0.280
 3553SOL    HW115506   0.821   6.779   0.324
 3553SOL    HW215507   0.917   6.893   0.350
 3554SOL     OW15508   0.627   7.158   1.299
 3554SOL    HW115509   0.630   7.217   1.374
 3554SOL    HW215510   0.718   7.150   1.271
 3555SOL     OW15511   1.352   5.642   0.186
 3555SOL    HW115512   1.343   5.619   0.094
 3555SOL    HW215513   1.266   5.622   0.224
 3556SOL     OW15514   1.299   6.054   0.672
 3556SOL    HW115515   1.247   6.134   0.671
 3556SOL    HW215516   1.281   6.014   0.757
 3557SOL     OW15517   1.557   5.769   0.915
 3557SOL    HW115518   1.501   5.778   0.992
 3557SOL    HW215519   1.544   5.851   0.867
 3558SOL     OW15520   0.923   7.289   0.374
 3558SOL    HW115521   0.832   7.286   0.345
 3558SOL    HW215522   0.920   7.338   0.457
 3559SOL     OW15523   0.226   6.119   2.025
 3559SOL    HW115524   0.186   6.140   2.109
 3559SOL    HW215525   0.228   6.203   1.978
 3560SOL     OW15526   0.132   5.850   2.872
 3560SOL    HW115527   0.186   5.824   2.946
 3560SOL    HW215528   0.106   5.768   2.831
 3561SOL     OW15529   9.944   5.881   2.497
 3561SOL    HW115530   9.887   5.831   2.439
 3561SOL    HW215531   0.032   5.869   2.462
 3562SOL     OW15532   0.611   6.905   3.078
 3562SOL    HW115533   0.530   6.894   3.029
 3562SOL    HW215534   0.614   6.998   3.100
 3563SOL     OW15535   1.561   7.111   2.545
 3563SOL    HW115536   1.509   7.093   2.624
 3563SOL    HW215537   1.495   7.131   2.478
 3564SOL     OW15538   1.075   6.320   2.549
 3564SOL    HW115539   1.085   6.331   2.454
 3564SOL    HW215540   1.018   6.245   2.559
 3565SOL     OW15541   0.824   6.791   2.941
 3565SOL    HW115542   0.744   6.805   2.992
 3565SOL    HW215543   0.833   6.870   2.888
 3566SOL     OW15544   0.866   6.330   3.645
 3566SOL    HW115545   0.776   6.298   3.636
 3566SOL    HW215546   0.879   6.387   3.568
 3567SOL     OW15547   0.692   6.572   2.508
 3567SOL    HW115548   0.749   6.586   2.584
 3567SOL    HW215549   0.628   6.643   2.513
 3568SOL     OW15550   0.739   6.756   3.696
 3568SOL    HW115551   0.786   6.830   3.736
 3568SOL    HW215552   0.660   6.795   3.658
 3569SOL     OW15553   0.395   7.007   2.927
 3569SOL    HW115554   0.324   6.976   2.870
 3569SOL    HW215555   0.455   7.052   2.868
 3570SOL     OW15556   1.429   7.047   3.203
 3570SOL    HW115557   1.458   7.138   3.202
 3570SOL    HW215558   1.368   7.040   3.130
 3571SOL     OW15559   0.458   5.955   3.313
 3571SOL    HW115560   0.531   5.895   3.326
 3571SOL    HW215561   0.381   5.906   3.340
 3572SOL     OW15562   1.625   6.065   2.559
 3572SOL    HW115563   1.590   6.056   2.470
 3572SOL    HW215564   1.559   6.115   2.606
 3573SOL     OW15565   1.196   6.862   3.576
 3573SOL    HW115566   1.194   6.882   3.669
 3573SOL    HW215567   1.129   6.795   3.564
 3574SOL     OW15568   0.375   6.702   2.781
 3574SOL    HW115569   0.312   6.631   2.792
 3574SOL    HW215570   0.322   6.781   2.772
 3575SOL     OW15571   0.621   7.392   3.330
 3575SOL    HW115572   0.526   7.384   3.337
 3575SOL    HW215573   0.639   7.486   3.335
 3576SOL     OW15574   0.568   6.555   1.999
 3576SOL    HW115575   0.620   6.613   1.944
 3576SOL    HW215576   0.604   6.566   2.087
 3577SOL     OW15577   1.558   5.717   3.305
 3577SOL    HW115578   1.492   5.758   3.249
 3577SOL    HW215579   1.519   5.715   3.392
 3578SOL     OW15580   0.162   6.236   2.415
 3578SOL    HW115581   0.091   6.174   2.433
 3578SOL    HW215582   0.137   6.315   2.462
 3579SOL     OW15583   1.900   7.337   2.228
 3579SOL    HW115584   1.816   7.333   2.274
 3579SOL    HW215585   1.905   7.427   2.194
 3580SOL     OW15586   9.967   7.163   1.925
 3580SOL    HW115587   0.037   7.126   1.979
 3580SOL    HW215588   9.947   7.247   1.967
 3581SOL     OW15589   1.723   6.499   2.522
 3581SOL    HW115590   1.641   6.453   2.538
 3581SOL    HW215591   1.704   6.556   2.448
 3582SOL     OW15592   1.670   6.667   2.303
 3582SOL    HW115593   1.602   6.693   2.240
 3582SOL    HW215594   1.681   6.743   2.359
 3583SOL     OW15595   0.164   6.302   3.460
 3583SOL    HW115596   0.256   6.330   3.464
 3583SOL    HW215597   0.123   6.363   3.398
 3584SOL     OW15598   0.660   7.008   2.514
 3584SOL    HW115599   0.607   6.929   2.515
 3584SOL    HW215600   0.721   6.995   2.441
 3585SOL     OW15601   1.287   6.789   3.280
 3585SOL    HW115602   1.314   6.724   3.215
 3585SOL    HW215603   1.199   6.814   3.253
 3586SOL     OW15604   0.829   5.608   2.393
 3586SOL    HW115605   0.855   5.695   2.367
 3586SOL    HW215606   0.736   5.616   2.415
 3587SOL     OW15607   0.151   6.571   3.135
 3587SOL    HW115608   0.233   6.523   3.120
 3587SOL    HW215609   0.135   6.616   3.052
 3588SOL     OW15610   1.502   6.567   2.010
 3588SOL    HW115611   1.432   6.517   1.968
 3588SOL    HW215612   1.465   6.655   2.019
 3589SOL     OW15613   1.120   7.425   3.474
 3589SOL    HW115614   1.149   7.503   3.426
 3589SOL    HW215615   1.065   7.378   3.412
 3590SOL     OW15616   0.318   5.836   3.732
 3590SOL    HW115617   0.350   5.913   3.685
 3590SOL    HW215618   0.226   5.830   3.708
 3591SOL     OW15619   1.457   7.014   2.795
 3591SOL    HW115620   1.381   7.038   2.848
 3591SOL    HW215621   1.442   6.922   2.773
 3592SOL     OW15622   1.662   7.361   2.363
 3592SOL    HW115623   1.614   7.348   2.281
 3592SOL    HW215624   1.619   7.303   2.425
 3593SOL     OW15625   0.615   6.283   2.129
 3593SOL    HW115626   0.591   6.362   2.080
 3593SOL    HW215627   0.544   6.272   2.193
 3594SOL     OW15628   1.264   5.950   2.776
 3594SOL    HW115629   1.180   5.904   2.777
 3594SOL    HW215630   1.324   5.890   2.820
 3595SOL     OW15631   1.572   7.334   2.104
 3595SOL    HW115632   1.544   7.409   2.051
 3595SOL    HW215633   1.536   7.258   2.059
 3596SOL     OW15634   0.734   6.160   3.325
 3596SOL    HW115635   0.711   6.146   3.417
 3596SOL    HW215636   0.683   6.095   3.277
 3597SOL     OW15637   1.405   6.066   3.528
 3597SOL    HW115638   1.391   6.097   3.617
 3597SOL    HW215639   1.445   5.979   3.539
 3598SOL     OW15640   0.939   6.470   3.409
 3598SOL    HW115641   0.979   6.396   3.363
 3598SOL    HW215642   0.894   6.519   3.340
 3599SOL     OW15643   0.996   5.976   3.067
 3599SOL    HW115644   0.956   5.901   3.112
 3599SOL    HW215645   0.977   5.961   2.974
 3600SOL     OW15646   1.096   6.287   2.270
 3600SOL    HW115647   1.167   6.225   2.287
 3600SOL    HW215648   1.019   6.231   2.257
 3601SOL     OW15649   0.086   6.451   2.572
 3601SOL    HW115650   0.135   6.478   2.650
 3601SOL    HW215651   0.019   6.518   2.561
 3602SOL     OW15652   0.103   7.411   3.428
 3602SOL    HW115653   0.098   7.447   3.517
 3602SOL    HW215654   0.055   7.475   3.374
 3603SOL     OW15655   0.885   5.927   2.052
 3603SOL    HW115656   0.940   5.943   1.975
 3603SOL    HW215657   0.813   5.873   2.019
 3604SOL     OW15658   1.774   6.138   3.661
 3604SOL    HW115659   1.731   6.218   3.629
 3604SOL    HW215660   1.748   6.071   3.599
 3605SOL     OW15661   1.401   6.729   2.480
 3605SOL    HW115662   1.411   6.660   2.414
 3605SOL    HW215663   1.352   6.798   2.436
 3606SOL     OW15664   0.556   5.644   2.774
 3606SOL    HW115665   0.567   5.687   2.859
 3606SOL    HW215666   0.527   5.714   2.715
 3607SOL     OW15667   0.434   7.392   2.782
 3607SOL    HW115668   0.346   7.378   2.747
 3607SOL    HW215669   0.455   7.482   2.758
 3608SOL     OW15670   1.841   6.664   2.711
 3608SOL    HW115671   1.796   6.612   2.645
 3608SOL    HW215672   1.778   6.672   2.783
 3609SOL     OW15673   1.163   7.112   3.379
 3609SOL    HW115674   1.106   7.115   3.455
 3609SOL    HW215675   1.143   7.192   3.330
 3610SOL     OW15676   0.299   6.544   2.102
 3610SOL    HW115677   0.387   6.557   2.065
 3610SOL    HW215678   0.260   6.476   2.047
 3611SOL     OW15679   1.482   6.379   2.547
 3611SOL    HW115680   1.441   6.292   2.546
 3611SOL    HW215681   1.412   6.437   2.577
 3612SOL     OW15682   0.497   6.895   3.606
 3612SOL    HW115683   0.479   6.880   3.513
 3612SOL    HW215684   0.410   6.910   3.644
 3613SOL     OW15685   0.208   5.834   3.372
 3613SOL    HW115686   0.115   5.854   3.382
 3613SOL    HW215687   0.216   5.741   3.394
 3614SOL     OW15688   1.619   6.919   1.907
 3614SOL    HW115689   1.589   7.010   1.906
 3614SOL    HW215690   1.544   6.869   1.939
 3615SOL     OW15691   0.358   7.310   2.297
 3615SOL    HW115692   0.425   7.378   2.303
 3615SOL    HW215693   0.341   7.300   2.203
 3616SOL     OW15694   1.382   5.709   2.298
 3616SOL    HW115695   1.370   5.680   2.208
 3616SOL    HW215696   1.460   5.764   2.296
 3617SOL     OW15697   0.236   7.365   3.018
 3617SOL    HW115698   0.325   7.347   2.987
 3617SOL    HW215699   0.181   7.353   2.941
 3618SOL     OW15700   1.017   7.294   2.775
 3618SOL    HW115701   1.091   7.252   2.731
 3618SOL    HW215702   0.941   7.269   2.722
 3619SOL     OW15703   0.422   6.232   2.325
 3619SOL    HW115704   0.442   6.150   2.370
 3619SOL    HW215705   0.330   6.249   2.345
 3620SOL     OW15706   1.480   5.794   3.572
 3620SOL    HW115707   1.485   5.809   3.666
 3620SOL    HW215708   1.419   5.721   3.562
 3621SOL     OW15709   0.621   5.715   1.947
 3621SOL    HW115710   0.617   5.658   2.024
 3621SOL    HW215711   0.570   5.668   1.880
 3622SOL     OW15712   0.743   5.875   3.623
 3622SOL    HW115713   0.831   5.838   3.610
 3622SOL    HW215714   0.699   5.812   3.681
 3623SOL     OW15715   0.901   7.126   3.072
 3623SOL    HW115716   0.881   7.115   2.980
 3623SOL    HW215717   0.948   7.046   3.097
 3624SOL     OW15718   1.310   6.174   3.289
 3624SOL    HW115719   1.349   6.144   3.371
 3624SOL    HW215720   1.352   6.259   3.272
 3625SOL     OW15721   0.819   7.039   2.821
 3625SOL    HW115722   0.859   7.068   2.738
 3625SOL    HW215723   0.727   7.065   2.813
 3626SOL     OW15724   0.949   6.054   2.769
 3626SOL    HW115725   0.914   6.077   2.683
 3626SOL    HW215726   0.970   5.961   2.762
 3627SOL     OW15727   0.555   5.641   2.432
 3627SOL    HW115728   0.497   5.603   2.497
 3627SOL    HW215729   0.503   5.711   2.391
 3628SOL     OW15730   1.382   6.821   2.016
 3628SOL    HW115731   1.302   6.771   2.000
 3628SOL    HW215732   1.351   6.907   2.046
 3629SOL     OW15733   0.916   5.864   2.318
 3629SOL    HW115734   0.915   5.882   2.224
 3629SOL    HW215735   1.009   5.868   2.342
 3630SOL     OW15736   1.030   6.228   3.284
 3630SOL    HW115737   1.001   6.174   3.358
 3630SOL    HW215738   1.124   6.212   3.278
 3631SOL     OW15739   1.170   7.157   2.570
 3631SOL    HW115740   1.113   7.142   2.495
 3631SOL    HW215741   1.215   7.240   2.550
 3632SOL     OW15742   0.509   6.773   2.538
 3632SOL    HW115743   0.453   6.762   2.615
 3632SOL    HW215744   0.450   6.761   2.464
 3633SOL     OW15745   1.281   7.416   2.514
 3633SOL    HW115746   1.319   7.470   2.445
 3633SOL    HW215747   1.200   7.462   2.537
 3634SOL     OW15748   1.059   6.118   1.902
 3634SOL    HW115749   0.997   6.189   1.883
 3634SOL    HW215750   1.075   6.126   1.996
 3635SOL     OW15751   0.106   6.171   3.203
 3635SOL    HW115752   0.197   6.163   3.177
 3635SOL    HW215753   0.108   6.177   3.298
 3636SOL     OW15754   0.559   5.794   3.036
 3636SOL    HW115755   0.591   5.752   3.116
 3636SOL    HW215756   0.464   5.799   3.049
 3637SOL     OW15757   0.901   6.099   2.494
 3637SOL    HW115758   0.849   6.149   2.432
 3637SOL    HW215759   0.913   6.014   2.453
 3638SOL     OW15760   1.018   5.592   2.601
 3638SOL    HW115761   0.953   5.592   2.530
 3638SOL    HW215762   0.994   5.517   2.655
 3639SOL     OW15763   1.431   6.743   2.751
 3639SOL    HW115764   1.352   6.696   2.778
 3639SOL    HW215765   1.430   6.739   2.655
 3640SOL     OW15766   1.435   6.172   2.859
 3640SOL    HW115767   1.412   6.170   2.766
 3640SOL    HW215768   1.375   6.111   2.901
 3641SOL     OW15769   0.495   7.089   1.997
 3641SOL    HW115770   0.445   7.028   2.051
 3641SOL    HW215771   0.447   7.172   2.004
 3642SOL     OW15772   1.716   6.889   2.453
 3642SOL    HW115773   1.801   6.914   2.491
 3642SOL    HW215774   1.657   6.959   2.480
 3643SOL     OW15775   0.636   5.936   2.239
 3643SOL    HW115776   0.723   5.908   2.268
 3643SOL    HW215777   0.593   5.969   2.317
 3644SOL     OW15778   1.804   6.811   3.349
 3644SOL    HW115779   1.890   6.776   3.373
 3644SOL    HW215780   1.790   6.884   3.409
 3645SOL     OW15781   1.053   6.926   3.207
 3645SOL    HW115782   0.967   6.893   3.234
 3645SOL    HW215783   1.076   6.991   3.272
 3646SOL     OW15784   1.523   7.105   3.484
 3646SOL    HW115785   1.531   7.175   3.419
 3646SOL    HW215786   1.612   7.074   3.497
 3647SOL     OW15787   1.105   6.738   2.940
 3647SOL    HW115788   1.011   6.740   2.955
 3647SOL    HW215789   1.119   6.798   2.866
 3648SOL     OW15790   1.650   6.685   2.915
 3648SOL    HW115791   1.635   6.743   2.989
 3648SOL    HW215792   1.572   6.695   2.860
 3649SOL     OW15793   0.919   5.744   3.201
 3649SOL    HW115794   0.929   5.680   3.130
 3649SOL    HW215795   0.992   5.726   3.260
 3650SOL     OW15796   0.996   6.664   3.604
 3650SOL    HW115797   0.908   6.689   3.633
 3650SOL    HW215798   0.981   6.595   3.538
 3651SOL     OW15799   0.713   6.570   2.231
 3651SOL    HW115800   0.706   6.562   2.326
 3651SOL    HW215801   0.790   6.518   2.208
 3652SOL     OW15802   0.391   6.418   3.130
 3652SOL    HW115803   0.462   6.428   3.194
 3652SOL    HW215804   0.377   6.324   3.124
 3653SOL     OW15805   1.269   5.944   3.129
 3653SOL    HW115806   1.293   6.022   3.179
 3653SOL    HW215807   1.181   5.962   3.097
 3654SOL     OW15808   0.094   7.156   3.164
 3654SOL    HW115809   0.098   7.235   3.110
 3654SOL    HW215810   0.186   7.134   3.182
 3655SOL     OW15811   0.364   6.730   2.308
 3655SOL    HW115812   0.342   6.810   2.259
 3655SOL    HW215813   0.333   6.659   2.253
 3656SOL     OW15814   0.615   6.188   2.789
 3656SOL    HW115815   0.610   6.228   2.703
 3656SOL    HW215816   0.527   6.154   2.805
 3657SOL     OW15817   1.283   6.925   2.332
 3657SOL    HW115818   1.318   7.007   2.367
 3657SOL    HW215819   1.223   6.952   2.262
 3658SOL     OW15820   1.234   7.019   2.995
 3658SOL    HW115821   1.176   6.977   3.058
 3658SOL    HW215822   1.197   6.996   2.909
 3659SOL     OW15823   0.376   7.113   3.177
 3659SOL    HW115824   0.360   7.078   3.090
 3659SOL    HW215825   0.467   7.141   3.176
 3660SOL     OW15826   0.440   6.332   3.497
 3660SOL    HW115827   0.497   6.365   3.427
 3660SOL    HW215828   0.490   6.259   3.535
 3661SOL     OW15829   1.655   6.376   3.568
 3661SOL    HW115830   1.561   6.395   3.568
 3661SOL    HW215831   1.687   6.418   3.488
 3662SOL     OW15832   0.982   5.744   3.589
 3662SOL    HW115833   1.055   5.803   3.574
 3662SOL    HW215834   1.022   5.657   3.596
 3663SOL     OW15835   0.463   5.637   3.583
 3663SOL    HW115836   0.426   5.548   3.587
 3663SOL    HW215837   0.395   5.692   3.621
 3664SOL     OW15838   0.559   6.544   2.940
 3664SOL    HW115839   0.515   6.604   2.880
 3664SOL    HW215840   0.490   6.509   2.996
 3665SOL     OW15841   1.402   6.448   2.876
 3665SOL    HW115842   1.354   6.464   2.795
 3665SOL    HW215843   1.417   6.354   2.877
 3666SOL     OW15844   0.284   5.782   3.099
 3666SOL    HW115845   0.251   5.807   3.185
 3666SOL    HW215846   0.278   5.686   3.098
 3667SOL     OW15847   9.989   6.900   3.131
 3667SOL    HW115848   0.040   6.860   3.201
 3667SOL    HW215849   0.018   6.992   3.130
 3668SOL     OW15850   0.740   6.338   2.977
 3668SOL    HW115851   0.707   6.284   2.906
 3668SOL    HW215852   0.683   6.414   2.978
 3669SOL     OW15853   1.783   6.533   3.758
 3669SOL    HW115854   1.738   6.473   3.698
 3669SOL    HW215855   1.714   6.563   3.818
 3670SOL     OW15856   0.291   5.624   2.544
 3670SOL    HW115857   0.261   5.702   2.499
 3670SOL    HW215858   0.228   5.612   2.615
 3671SOL     OW15859   1.717   5.909   2.243
 3671SOL    HW115860   1.675   5.866   2.168
 3671SOL    HW215861   1.649   5.967   2.278
 3672SOL     OW15862   1.035   6.255   2.932
 3672SOL    HW115863   1.059   6.332   2.880
 3672SOL    HW215864   1.016   6.187   2.868
 3673SOL     OW15865   0.969   7.145   3.567
 3673SOL    HW115866   0.937   7.230   3.538
 3673SOL    HW215867   0.894   7.087   3.561
 3674SOL     OW15868   1.799   7.052   3.485
 3674SOL    HW115869   1.834   7.112   3.419
 3674SOL    HW215870   1.827   7.089   3.568
 3675SOL     OW15871   0.391   6.560   3.652
 3675SOL    HW115872   0.454   6.564   3.724
 3675SOL    HW215873   0.411   6.477   3.608
 3676SOL     OW15874   1.568   5.818   2.037
 3676SOL    HW115875   1.494   5.759   2.025
 3676SOL    HW215876   1.540   5.901   1.997
 3677SOL     OW15877   1.316   6.414   1.874
 3677SOL    HW115878   1.283   6.325   1.860
 3677SOL    HW215879   1.340   6.445   1.786
 3678SOL     OW15880   1.155   6.934   2.739
 3678SOL    HW115881   1.126   6.863   2.681
 3678SOL    HW215882   1.159   7.011   2.682
 3679SOL     OW15883   0.270   6.432   2.792
 3679SOL    HW115884   0.339   6.395   2.737
 3679SOL    HW215885   0.232   6.356   2.836
 3680SOL     OW15886   0.366   6.090   2.848
 3680SOL    HW115887   0.278   6.115   2.876
 3680SOL    HW215888   0.353   6.031   2.774
 3681SOL     OW15889   1.153   5.954   3.510
 3681SOL    HW115890   1.104   6.011   3.570
 3681SOL    HW215891   1.241   5.993   3.507
 3682SOL     OW15892   1.177   5.761   3.320
 3682SOL    HW115893   1.158   5.827   3.387
 3682SOL    HW215894   1.210   5.811   3.246
 3683SOL     OW15895   0.030   6.916   2.067
 3683SOL    HW115896   9.980   6.925   1.986
 3683SOL    HW215897   0.026   6.823   2.087
 3684SOL     OW15898   0.568   7.140   2.756
 3684SOL    HW115899   0.521   7.223   2.749
 3684SOL    HW215900   0.574   7.108   2.666
 3685SOL     OW15901   0.106   6.123   2.923
 3685SOL    HW115902   0.095   6.029   2.907
 3685SOL    HW215903   0.080   6.135   3.014
 3686SOL     OW15904   0.217   6.052   3.566
 3686SOL    HW115905   0.234   6.005   3.485
 3686SOL    HW215906   0.204   6.143   3.540
 3687SOL     OW15907   1.399   6.478   3.518
 3687SOL    HW115908   1.356   6.564   3.522
 3687SOL    HW215909   1.401   6.457   3.425
 3688SOL     OW15910   0.853   6.164   2.209
 3688SOL    HW115911   0.846   6.084   2.158
 3688SOL    HW215912   0.774   6.214   2.185
 3689SOL     OW15913   1.680   6.202   2.996
 3689SOL    HW115914   1.677   6.143   3.071
 3689SOL    HW215915   1.598   6.186   2.949
 3690SOL     OW15916   0.695   6.044   3.050
 3690SOL    HW115917   0.657   5.956   3.053
 3690SOL    HW215918   0.658   6.084   2.971
 3691SOL     OW15919   0.969   7.298   3.281
 3691SOL    HW115920   0.942   7.246   3.206
 3691SOL    HW215921   0.930   7.384   3.265
 3692SOL     OW15922   0.153   6.773   3.325
 3692SOL    HW115923   0.142   6.741   3.415
 3692SOL    HW215924   0.152   6.694   3.271
 3693SOL     OW15925   1.310   6.612   3.072
 3693SOL    HW115926   1.347   6.557   3.003
 3693SOL    HW215927   1.234   6.653   3.032
 3694SOL     OW15928   1.749   7.279   3.048
 3694SOL    HW115929   1.783   7.331   2.975
 3694SOL    HW215930   1.717   7.199   3.007
 3695SOL     OW15931   1.400   7.271   3.004
 3695SOL    HW115932   1.418   7.309   2.918
 3695SOL    HW215933   1.317   7.225   2.993
 3696SOL     OW15934   0.096   6.763   2.907
 3696SOL    HW115935   0.052   6.820   2.970
 3696SOL    HW215936   0.117   6.820   2.833
 3697SOL     OW15937   0.657   7.295   3.587
 3697SOL    HW115938   0.582   7.345   3.620
 3697SOL    HW215939   0.668   7.326   3.497
 3698SOL     OW15940   1.891   5.667   2.435
 3698SOL    HW115941   1.893   5.690   2.342
 3698SOL    HW215942   1.816   5.609   2.444
 3699SOL     OW15943   1.380   7.191   2.348
 3699SOL    HW115944   1.335   7.167   2.267
 3699SOL    HW215945   1.331   7.267   2.381
 3700SOL     OW15946   0.147   7.349   3.718
 3700SOL    HW115947   0.068   7.375   3.765
 3700SOL    HW215948   0.217   7.400   3.758
 3701SOL     OW15949   1.253   6.503   2.647
 3701SOL    HW115950   1.193   6.433   2.621
 3701SOL    HW215951   1.209   6.584   2.621
 3702SOL     OW15952   0.793   6.875   3.289
 3702SOL    HW115953   0.767   6.926   3.365
 3702SOL    HW215954   0.721   6.886   3.227
 3703SOL     OW15955   1.581   7.293   3.281
 3703SOL    HW115956   1.606   7.296   3.189
 3703SOL    HW215957   1.574   7.384   3.308
 3704SOL     OW15958   1.894   5.788   2.871
 3704SOL    HW115959   1.906   5.699   2.838
 3704SOL    HW215960   1.809   5.816   2.836
 3705SOL     OW15961   0.275   5.934   2.642
 3705SOL    HW115962   0.239   5.908   2.557
 3705SOL    HW215963   0.210   5.905   2.705
 3706SOL     OW15964   0.800   6.605   3.213
 3706SOL    HW115965   0.791   6.615   3.118
 3706SOL    HW215966   0.796   6.694   3.247
 3707SOL     OW15967   0.957   6.468   2.102
 3707SOL    HW115968   1.008   6.548   2.091
 3707SOL    HW215969   1.008   6.414   2.162
 3708SOL     OW15970   1.464   7.151   1.923
 3708SOL    HW115971   1.370   7.142   1.935
 3708SOL    HW215972   1.476   7.167   1.830
 3709SOL     OW15973   0.399   6.897   3.353
 3709SOL    HW115974   0.394   6.971   3.292
 3709SOL    HW215975   0.317   6.850   3.341
 3710SOL     OW15976   1.629   6.861   3.133
 3710SOL    HW115977   1.675   6.836   3.213
 3710SOL    HW215978   1.554   6.911   3.164
 3711SOL     OW15979   1.058   6.710   2.602
 3711SOL    HW115980   0.987   6.663   2.646
 3711SOL    HW215981   1.019   6.745   2.522
 3712SOL     OW15982   1.035   5.792   2.795
 3712SOL    HW115983   1.031   5.736   2.717
 3712SOL    HW215984   1.021   5.732   2.868
 3713SOL     OW15985   1.729   6.033   3.221
 3713SOL    HW115986   1.806   6.087   3.241
 3713SOL    HW215987   1.766   5.951   3.187
 3714SOL     OW15988   0.287   6.963   2.164
 3714SOL    HW115989   0.194   6.954   2.144
 3714SOL    HW215990   0.295   7.048   2.206
 3715SOL     OW15991   0.158   6.685   3.597
 3715SOL    HW115992   0.102   6.615   3.630
 3715SOL    HW215993   0.247   6.653   3.611
 3716SOL     OW15994   0.678   5.794   3.338
 3716SOL    HW115995   0.762   5.772   3.298
 3716SOL    HW215996   0.696   5.799   3.432
 3717SOL     OW15997   1.427   6.430   3.246
 3717SOL    HW115998   1.371   6.487   3.194
 3717SOL    HW215999   1.512   6.432   3.201
 3718SOL     OW16000   0.614   6.411   3.298
 3718SOL    HW116001   0.674   6.481   3.272
 3718SOL    HW216002   0.668   6.332   3.298
 3719SOL     OW16003   1.438   7.387   2.754
 3719SOL    HW116004   1.384   7.390   2.674
 3719SOL    HW216005   1.490   7.467   2.749
 3720SOL     OW16006   0.630   6.140   3.612
 3720SOL    HW116007   0.580   6.151   3.693
 3720SOL    HW216008   0.664   6.051   3.617
 3721SOL     OW16009   0.355   7.324   3.372
 3721SOL    HW116010   0.265   7.355   3.380
 3721SOL    HW216011   0.351   7.253   3.308
 3722SOL     OW16012   1.670   6.463   3.097
 3722SOL    HW116013   1.676   6.378   3.054
 3722SOL    HW216014   1.655   6.525   3.025
 3723SOL     OW16015   1.183   5.898   2.360
 3723SOL    HW116016   1.250   5.832   2.346
 3723SOL    HW216017   1.228   5.982   2.349
 3724SOL     OW16018   0.564   6.329   2.554
 3724SOL    HW116019   0.605   6.413   2.534
 3724SOL    HW216020   0.515   6.307   2.474
 3725SOL     OW16021   1.719   5.928   3.490
 3725SOL    HW116022   1.705   5.958   3.400
 3725SOL    HW216023   1.645   5.870   3.508
 3726SOL     OW16024   1.759   6.520   3.351
 3726SOL    HW116025   1.751   6.615   3.355
 3726SOL    HW216026   1.727   6.497   3.264
 3727SOL     OW16027   0.676   7.494   2.881
 3727SOL    HW116028   0.650   7.556   2.813
 3727SOL    HW216029   0.615   7.421   2.872
 3728SOL     OW16030   0.843   6.593   2.744
 3728SOL    HW116031   0.806   6.513   2.780
 3728SOL    HW216032   0.825   6.660   2.810
 3729SOL     OW16033   1.177   6.640   1.969
 3729SOL    HW116034   1.110   6.671   1.908
 3729SOL    HW216035   1.204   6.555   1.935
 3730SOL     OW16036   1.798   7.132   2.693
 3730SOL    HW116037   1.723   7.135   2.634
 3730SOL    HW216038   1.765   7.089   2.772
 3731SOL     OW16039   0.239   6.947   3.694
 3731SOL    HW116040   0.192   6.872   3.657
 3731SOL    HW216041   0.239   6.930   3.788
 3732SOL     OW16042   0.718   7.033   3.518
 3732SOL    HW116043   0.642   6.982   3.545
 3732SOL    HW216044   0.692   7.124   3.533
 3733SOL     OW16045   1.877   5.814   3.149
 3733SOL    HW116046   1.846   5.730   3.183
 3733SOL    HW216047   1.881   5.801   3.054
 3734SOL     OW16048   0.479   6.001   2.461
 3734SOL    HW116049   0.441   5.927   2.413
 3734SOL    HW216050   0.428   6.005   2.542
 3735SOL     OW16051   1.691   7.037   2.930
 3735SOL    HW116052   1.607   7.036   2.883
 3735SOL    HW216053   1.679   6.972   3.000
 3736SOL     OW16054   0.370   6.141   3.131
 3736SOL    HW116055   0.408   6.078   3.192
 3736SOL    HW216056   0.386   6.104   3.044
 3737SOL     OW16057   0.864   7.179   2.577
 3737SOL    HW116058   0.914   7.172   2.496
 3737SOL    HW216059   0.781   7.134   2.558
 3738SOL     OW16060   1.432   5.798   2.933
 3738SOL    HW116061   1.421   5.703   2.930
 3738SOL    HW216062   1.381   5.826   3.009
 3739SOL     OW16063   1.003   5.591   2.983
 3739SOL    HW116064   0.965   5.524   2.927
 3739SOL    HW216065   1.088   5.556   3.011
 3740SOL     OW16066   0.768   6.825   2.136
 3740SOL    HW116067   0.740   6.748   2.184
 3740SOL    HW216068   0.796   6.887   2.204
 3741SOL     OW16069   0.645   7.168   3.169
 3741SOL    HW116070   0.645   7.248   3.222
 3741SOL    HW216071   0.733   7.164   3.132
 3742SOL     OW16072   1.358   5.640   2.013
 3742SOL    HW116073   1.352   5.630   1.918
 3742SOL    HW216074   1.283   5.591   2.047
 3743SOL     OW16075   1.355   6.137   2.593
 3743SOL    HW116076   1.331   6.129   2.501
 3743SOL    HW216077   1.303   6.070   2.637
 3744SOL     OW16078   1.662   5.905   2.792
 3744SOL    HW116079   1.582   5.873   2.835
 3744SOL    HW216080   1.631   5.941   2.709
 3745SOL     OW16081   0.034   6.648   2.106
 3745SOL    HW116082   0.119   6.608   2.121
 3745SOL    HW216083   9.971   6.578   2.120
 3746SOL     OW16084   0.258   6.315   3.850
 3746SOL    HW116085   0.201   6.250   3.890
 3746SOL    HW216086   0.340   6.269   3.834
 3747SOL     OW16087   0.184   5.826   4.715
 3747SOL    HW116088   0.226   5.809   4.799
 3747SOL    HW216089   0.131   5.748   4.698
 3748SOL     OW16090   0.033   5.963   4.342
 3748SOL    HW116091   9.940   5.972   4.320
 3748SOL    HW216092   0.070   5.911   4.271
 3749SOL     OW16093   0.579   6.892   4.946
 3749SOL    HW116094   0.499   6.893   4.894
 3749SOL    HW216095   0.596   6.984   4.965
 3750SOL     OW16096   1.585   7.136   4.421
 3750SOL    HW116097   1.539   7.101   4.497
 3750SOL    HW216098   1.519   7.137   4.352
 3751SOL     OW16099   1.194   6.239   4.425
 3751SOL    HW116100   1.155   6.294   4.357
 3751SOL    HW216101   1.121   6.214   4.481
 3752SOL     OW16102   1.816   6.179   3.929
 3752SOL    HW116103   1.788   6.169   3.837
 3752SOL    HW216104   1.736   6.169   3.979
 3753SOL     OW16105   0.740   6.723   4.788
 3753SOL    HW116106   0.678   6.758   4.852
 3753SOL    HW216107   0.775   6.801   4.745
 3754SOL     OW16108   0.908   6.304   5.550
 3754SOL    HW116109   0.853   6.363   5.600
 3754SOL    HW216110   0.926   6.351   5.469
 3755SOL     OW16111   0.701   6.566   4.382
 3755SOL    HW116112   0.769   6.569   4.450
 3755SOL    HW216113   0.632   6.624   4.415
 3756SOL     OW16114   0.730   6.735   5.559
 3756SOL    HW116115   0.773   6.815   5.589
 3756SOL    HW216116   0.652   6.765   5.513
 3757SOL     OW16117   0.358   6.974   4.791
 3757SOL    HW116118   0.291   6.927   4.743
 3757SOL    HW216119   0.395   7.036   4.728
 3758SOL     OW16120   1.438   7.067   5.109
 3758SOL    HW116121   1.488   7.148   5.114
 3758SOL    HW216122   1.367   7.078   5.171
 3759SOL     OW16123   0.452   5.957   5.215
 3759SOL    HW116124   0.531   5.903   5.222
 3759SOL    HW216125   0.380   5.894   5.219
 3760SOL     OW16126   1.606   6.038   4.500
 3760SOL    HW116127   1.529   6.030   4.444
 3760SOL    HW216128   1.578   6.093   4.573
 3761SOL     OW16129   0.277   7.260   4.176
 3761SOL    HW116130   0.213   7.330   4.184
 3761SOL    HW216131   0.342   7.294   4.114
 3762SOL     OW16132   1.117   6.895   5.433
 3762SOL    HW116133   1.102   6.907   5.527
 3762SOL    HW216134   1.079   6.809   5.414
 3763SOL     OW16135   0.229   6.998   4.223
 3763SOL    HW116136   0.256   7.090   4.218
 3763SOL    HW216137   0.135   7.001   4.236
 3764SOL     OW16138   0.304   6.676   4.627
 3764SOL    HW116139   0.252   6.614   4.577
 3764SOL    HW216140   0.245   6.707   4.696
 3765SOL     OW16141   0.605   7.378   5.177
 3765SOL    HW116142   0.517   7.367   5.213
 3765SOL    HW216143   0.621   7.473   5.182
 3766SOL     OW16144   0.569   6.609   3.869
 3766SOL    HW116145   0.632   6.646   3.808
 3766SOL    HW216146   0.609   6.621   3.955
 3767SOL     OW16147   0.111   6.226   4.292
 3767SOL    HW116148   0.091   6.139   4.325
 3767SOL    HW216149   0.049   6.284   4.337
 3768SOL     OW16150   1.856   7.331   4.069
 3768SOL    HW116151   1.792   7.335   4.140
 3768SOL    HW216152   1.863   7.421   4.038
 3769SOL     OW16153   0.011   7.103   3.857
 3769SOL    HW116154   9.994   7.017   3.894
 3769SOL    HW216155   9.977   7.164   3.922
 3770SOL     OW16156   1.690   6.529   4.366
 3770SOL    HW116157   1.629   6.455   4.356
 3770SOL    HW216158   1.671   6.586   4.292
 3771SOL     OW16159   1.659   6.716   4.156
 3771SOL    HW116160   1.744   6.698   4.114
 3771SOL    HW216161   1.676   6.794   4.210
 3772SOL     OW16162   0.637   6.997   4.450
 3772SOL    HW116163   0.592   6.912   4.451
 3772SOL    HW216164   0.624   7.030   4.361
 3773SOL     OW16165   1.247   6.780   5.144
 3773SOL    HW116166   1.275   6.722   5.073
 3773SOL    HW216167   1.319   6.778   5.207
 3774SOL     OW16168   0.841   5.604   4.247
 3774SOL    HW116169   0.883   5.680   4.208
 3774SOL    HW216170   0.749   5.628   4.256
 3775SOL     OW16171   0.192   6.538   4.974
 3775SOL    HW116172   0.272   6.490   4.951
 3775SOL    HW216173   0.164   6.578   4.892
 3776SOL     OW16174   1.562   6.594   3.925
 3776SOL    HW116175   1.502   6.524   3.953
 3776SOL    HW216176   1.583   6.641   4.005
 3777SOL     OW16177   0.326   5.808   5.559
 3777SOL    HW116178   0.359   5.898   5.556
 3777SOL    HW216179   0.231   5.816   5.546
 3778SOL     OW16180   1.484   6.992   4.639
 3778SOL    HW116181   1.419   7.023   4.701
 3778SOL    HW216182   1.450   6.908   4.608
 3779SOL     OW16183   1.661   7.380   4.257
 3779SOL    HW116184   1.588   7.372   4.195
 3779SOL    HW216185   1.638   7.321   4.329
 3780SOL     OW16186   1.305   5.887   4.667
 3780SOL    HW116187   1.213   5.863   4.656
 3780SOL    HW216188   1.314   5.905   4.760
 3781SOL     OW16189   1.552   7.275   4.004
 3781SOL    HW116190   1.638   7.306   3.975
 3781SOL    HW216191   1.505   7.255   3.923
 3782SOL     OW16192   0.764   6.194   5.151
 3782SOL    HW116193   0.751   6.154   5.237
 3782SOL    HW216194   0.754   6.120   5.090
 3783SOL     OW16195   1.478   6.074   5.379
 3783SOL    HW116196   1.429   6.104   5.456
 3783SOL    HW216197   1.453   5.983   5.368
 3784SOL     OW16198   0.960   6.439   5.313
 3784SOL    HW116199   1.008   6.369   5.267
 3784SOL    HW216200   0.908   6.480   5.245
 3785SOL     OW16201   1.036   5.962   5.048
 3785SOL    HW116202   0.951   5.953   5.004
 3785SOL    HW216203   1.064   5.872   5.065
 3786SOL     OW16204   0.082   6.522   4.550
 3786SOL    HW116205   0.122   6.452   4.601
 3786SOL    HW216206   9.991   6.525   4.580
 3787SOL     OW16207   0.116   7.429   5.333
 3787SOL    HW116208   0.105   7.406   5.425
 3787SOL    HW216209   0.051   7.497   5.317
 3788SOL     OW16210   0.942   5.966   3.879
 3788SOL    HW116211   0.930   6.019   3.958
 3788SOL    HW216212   0.853   5.941   3.854
 3789SOL     OW16213   1.718   6.136   5.544
 3789SOL    HW116214   1.707   6.223   5.506
 3789SOL    HW216215   1.653   6.082   5.500
 3790SOL     OW16216   1.400   6.750   4.273
 3790SOL    HW116217   1.481   6.751   4.221
 3790SOL    HW216218   1.342   6.811   4.228
 3791SOL     OW16219   0.597   5.760   4.604
 3791SOL    HW116220   0.580   5.815   4.680
 3791SOL    HW216221   0.520   5.771   4.548
 3792SOL     OW16222   0.996   7.045   4.197
 3792SOL    HW116223   0.973   7.114   4.135
 3792SOL    HW216224   0.969   7.078   4.282
 3793SOL     OW16225   1.816   6.655   4.573
 3793SOL    HW116226   1.769   6.619   4.498
 3793SOL    HW216227   1.750   6.663   4.642
 3794SOL     OW16228   1.212   7.102   5.274
 3794SOL    HW116229   1.173   7.020   5.301
 3794SOL    HW216230   1.148   7.141   5.214
 3795SOL     OW16231   0.317   6.549   3.988
 3795SOL    HW116232   0.396   6.582   3.944
 3795SOL    HW216233   0.298   6.466   3.944
 3796SOL     OW16234   1.464   6.323   4.407
 3796SOL    HW116235   1.376   6.286   4.410
 3796SOL    HW216236   1.493   6.323   4.498
 3797SOL     OW16237   0.489   6.836   5.450
 3797SOL    HW116238   0.451   6.867   5.368
 3797SOL    HW216239   0.414   6.820   5.507
 3798SOL     OW16240   1.176   7.297   3.978
 3798SOL    HW116241   1.087   7.290   4.011
 3798SOL    HW216242   1.176   7.248   3.895
 3799SOL     OW16243   0.213   5.822   5.220
 3799SOL    HW116244   0.128   5.865   5.214
 3799SOL    HW216245   0.194   5.734   5.251
 3800SOL     OW16246   1.649   6.974   3.802
 3800SOL    HW116247   1.597   7.054   3.804
 3800SOL    HW216248   1.586   6.905   3.783
 3801SOL     OW16249   0.487   7.366   4.024
 3801SOL    HW116250   0.522   7.405   4.104
 3801SOL    HW216251   0.538   7.405   3.953
 3802SOL     OW16252   1.434   5.628   4.145
 3802SOL    HW116253   1.385   5.652   4.066
 3802SOL    HW216254   1.501   5.567   4.113
 3803SOL     OW16255   0.219   7.365   4.928
 3803SOL    HW116256   0.271   7.285   4.938
 3803SOL    HW216257   0.207   7.374   4.834
 3804SOL     OW16258   0.998   7.409   4.453
 3804SOL    HW116259   1.001   7.404   4.548
 3804SOL    HW216260   0.944   7.334   4.426
 3805SOL     OW16261   0.391   6.279   4.256
 3805SOL    HW116262   0.398   6.221   4.180
 3805SOL    HW216263   0.298   6.278   4.278
 3806SOL     OW16264   1.650   5.834   5.487
 3806SOL    HW116265   1.611   5.853   5.573
 3806SOL    HW216266   1.575   5.810   5.432
 3807SOL     OW16267   0.650   5.667   3.780
 3807SOL    HW116268   0.687   5.581   3.799
 3807SOL    HW216269   0.585   5.651   3.712
 3808SOL     OW16270   0.757   5.857   5.529
 3808SOL    HW116271   0.837   5.817   5.495
 3808SOL    HW216272   0.718   5.789   5.584
 3809SOL     OW16273   0.883   7.106   4.921
 3809SOL    HW116274   0.860   7.075   4.833
 3809SOL    HW216275   0.933   7.034   4.959
 3810SOL     OW16276   1.414   6.161   5.117
 3810SOL    HW116277   1.426   6.129   5.206
 3810SOL    HW216278   1.378   6.248   5.127
 3811SOL     OW16279   0.821   6.968   4.675
 3811SOL    HW116280   0.906   6.961   4.632
 3811SOL    HW216281   0.758   6.979   4.604
 3812SOL     OW16282   0.980   6.114   4.574
 3812SOL    HW116283   0.937   6.100   4.489
 3812SOL    HW216284   0.998   6.026   4.607
 3813SOL     OW16285   0.577   5.679   4.253
 3813SOL    HW116286   0.511   5.650   4.317
 3813SOL    HW216287   0.563   5.773   4.245
 3814SOL     OW16288   1.447   6.792   3.764
 3814SOL    HW116289   1.476   6.714   3.810
 3814SOL    HW216290   1.356   6.804   3.792
 3815SOL     OW16291   0.311   5.677   3.966
 3815SOL    HW116292   0.342   5.714   3.884
 3815SOL    HW216293   0.368   5.602   3.983
 3816SOL     OW16294   0.964   5.828   4.136
 3816SOL    HW116295   0.949   5.921   4.154
 3816SOL    HW216296   0.977   5.824   4.041
 3817SOL     OW16297   1.045   6.214   5.173
 3817SOL    HW116298   0.951   6.195   5.183
 3817SOL    HW216299   1.083   6.130   5.149
 3818SOL     OW16300   1.225   7.153   4.502
 3818SOL    HW116301   1.241   7.216   4.432
 3818SOL    HW216302   1.231   7.204   4.583
 3819SOL     OW16303   0.497   6.751   4.443
 3819SOL    HW116304   0.440   6.730   4.517
 3819SOL    HW216305   0.442   6.739   4.366
 3820SOL     OW16306   1.255   7.364   4.319
 3820SOL    HW116307   1.289   7.437   4.268
 3820SOL    HW216308   1.171   7.396   4.353
 3821SOL     OW16309   1.050   6.132   3.684
 3821SOL    HW116310   0.992   6.207   3.682
 3821SOL    HW216311   1.020   6.080   3.759
 3822SOL     OW16312   0.146   6.218   5.177
 3822SOL    HW116313   0.226   6.202   5.127
 3822SOL    HW216314   0.076   6.206   5.112
 3823SOL     OW16315   0.568   5.814   4.887
 3823SOL    HW116316   0.590   5.720   4.887
 3823SOL    HW216317   0.476   5.816   4.912
 3824SOL     OW16318   1.038   5.628   4.448
 3824SOL    HW116319   0.968   5.622   4.383
 3824SOL    HW216320   1.021   5.555   4.508
 3825SOL     OW16321   1.403   6.738   4.559
 3825SOL    HW116322   1.313   6.708   4.570
 3825SOL    HW216323   1.416   6.743   4.464
 3826SOL     OW16324   1.459   6.175   4.702
 3826SOL    HW116325   1.401   6.105   4.731
 3826SOL    HW216326   1.515   6.193   4.778
 3827SOL     OW16327   1.941   6.376   4.072
 3827SOL    HW116328   1.956   6.327   4.153
 3827SOL    HW216329   1.893   6.315   4.016
 3828SOL     OW16330   0.517   7.022   3.868
 3828SOL    HW116331   0.436   6.993   3.911
 3828SOL    HW216332   0.518   6.976   3.784
 3829SOL     OW16333   1.730   6.918   4.319
 3829SOL    HW116334   1.817   6.917   4.360
 3829SOL    HW216335   1.687   6.995   4.355
 3830SOL     OW16336   1.355   6.110   3.799
 3830SOL    HW116337   1.288   6.118   3.866
 3830SOL    HW216338   1.401   6.028   3.819
 3831SOL     OW16339   1.742   6.860   5.256
 3831SOL    HW116340   1.832   6.826   5.257
 3831SOL    HW216341   1.751   6.952   5.281
 3832SOL     OW16342   1.018   6.898   5.042
 3832SOL    HW116343   0.939   6.872   5.091
 3832SOL    HW216344   1.090   6.860   5.091
 3833SOL     OW16345   1.621   7.188   5.380
 3833SOL    HW116346   1.594   7.234   5.300
 3833SOL    HW216347   1.713   7.165   5.364
 3834SOL     OW16348   1.157   6.830   4.815
 3834SOL    HW116349   1.091   6.849   4.881
 3834SOL    HW216350   1.119   6.859   4.733
 3835SOL     OW16351   1.611   6.680   4.768
 3835SOL    HW116352   1.596   6.744   4.837
 3835SOL    HW216353   1.536   6.690   4.709
 3836SOL     OW16354   0.988   6.649   5.485
 3836SOL    HW116355   0.897   6.674   5.503
 3836SOL    HW216356   0.981   6.580   5.419
 3837SOL     OW16357   0.702   6.629   4.115
 3837SOL    HW116358   0.696   6.620   4.210
 3837SOL    HW216359   0.788   6.593   4.092
 3838SOL     OW16360   0.440   6.404   4.965
 3838SOL    HW116361   0.490   6.424   5.044
 3838SOL    HW216362   0.411   6.314   4.977
 3839SOL     OW16363   1.332   5.959   4.926
 3839SOL    HW116364   1.343   6.021   4.998
 3839SOL    HW216365   1.272   5.893   4.960
 3840SOL     OW16366   0.096   7.180   5.120
 3840SOL    HW116367   0.089   7.269   5.086
 3840SOL    HW216368   0.188   7.156   5.107
 3841SOL     OW16369   0.325   6.713   4.228
 3841SOL    HW116370   0.305   6.800   4.194
 3841SOL    HW216371   0.321   6.656   4.151
 3842SOL     OW16372   0.500   6.059   4.636
 3842SOL    HW116373   0.510   6.047   4.541
 3842SOL    HW216374   0.583   6.097   4.664
 3843SOL     OW16375   1.246   6.940   4.132
 3843SOL    HW116376   1.302   7.014   4.154
 3843SOL    HW216377   1.158   6.967   4.159
 3844SOL     OW16378   1.322   7.047   4.857
 3844SOL    HW116379   1.355   7.051   4.947
 3844SOL    HW216380   1.266   6.969   4.855
 3845SOL     OW16381   1.564   6.224   4.150
 3845SOL    HW116382   1.541   6.247   4.240
 3845SOL    HW216383   1.507   6.279   4.096
 3846SOL     OW16384   0.351   7.123   5.018
 3846SOL    HW116385   0.343   7.067   4.941
 3846SOL    HW216386   0.444   7.147   5.021
 3847SOL     OW16387   0.359   6.393   5.337
 3847SOL    HW116388   0.438   6.411   5.286
 3847SOL    HW216389   0.363   6.300   5.356
 3848SOL     OW16390   1.663   6.386   5.429
 3848SOL    HW116391   1.569   6.403   5.418
 3848SOL    HW216392   1.703   6.419   5.349
 3849SOL     OW16393   0.970   5.752   5.404
 3849SOL    HW116394   1.035   5.822   5.396
 3849SOL    HW216395   0.994   5.689   5.337
 3850SOL     OW16396   0.490   5.599   5.477
 3850SOL    HW116397   0.447   5.544   5.411
 3850SOL    HW216398   0.428   5.670   5.493
 3851SOL     OW16399   0.630   6.441   4.766
 3851SOL    HW116400   0.647   6.535   4.758
 3851SOL    HW216401   0.557   6.434   4.828
 3852SOL     OW16402   1.305   6.420   4.729
 3852SOL    HW116403   1.212   6.407   4.707
 3852SOL    HW216404   1.345   6.335   4.710
 3853SOL     OW16405   1.192   6.129   4.026
 3853SOL    HW116406   1.227   6.055   4.077
 3853SOL    HW216407   1.102   6.137   4.057
 3854SOL     OW16408   0.302   5.786   4.961
 3854SOL    HW116409   0.269   5.806   5.048
 3854SOL    HW216410   0.308   5.691   4.958
 3855SOL     OW16411   0.025   6.938   4.985
 3855SOL    HW116412   0.077   6.878   5.039
 3855SOL    HW216413   0.039   7.024   5.024
 3856SOL     OW16414   0.729   6.184   4.729
 3856SOL    HW116415   0.812   6.192   4.682
 3856SOL    HW216416   0.699   6.274   4.740
 3857SOL     OW16417   1.762   6.559   5.619
 3857SOL    HW116418   1.727   6.513   5.542
 3857SOL    HW216419   1.749   6.497   5.691
 3858SOL     OW16420   0.353   5.656   4.422
 3858SOL    HW116421   0.327   5.748   4.427
 3858SOL    HW216422   0.282   5.613   4.376
 3859SOL     OW16423   1.579   5.951   4.104
 3859SOL    HW116424   1.487   5.930   4.123
 3859SOL    HW216425   1.586   6.045   4.119
 3860SOL     OW16426   1.030   6.360   4.700
 3860SOL    HW116427   0.998   6.356   4.789
 3860SOL    HW216428   1.016   6.272   4.665
 3861SOL     OW16429   1.879   7.128   5.296
 3861SOL    HW116430   1.897   7.131   5.202
 3861SOL    HW216431   1.907   7.214   5.328
 3862SOL     OW16432   0.373   6.472   5.610
 3862SOL    HW116433   0.458   6.500   5.644
 3862SOL    HW216434   0.387   6.463   5.515
 3863SOL     OW16435   1.493   5.872   3.843
 3863SOL    HW116436   1.435   5.799   3.864
 3863SOL    HW216437   1.538   5.892   3.926
 3864SOL     OW16438   1.306   6.381   3.763
 3864SOL    HW116439   1.307   6.286   3.761
 3864SOL    HW216440   1.336   6.408   3.676
 3865SOL     OW16441   1.072   6.934   4.572
 3865SOL    HW116442   1.100   6.858   4.521
 3865SOL    HW216443   1.126   7.006   4.538
 3866SOL     OW16444   0.248   6.353   4.693
 3866SOL    HW116445   0.340   6.373   4.679
 3866SOL    HW216446   0.247   6.261   4.719
 3867SOL     OW16447   0.269   6.083   4.775
 3867SOL    HW116448   0.224   6.001   4.755
 3867SOL    HW216449   0.351   6.077   4.726
 3868SOL     OW16450   1.167   5.940   5.385
 3868SOL    HW116451   1.155   5.984   5.469
 3868SOL    HW216452   1.250   5.895   5.392
 3869SOL     OW16453   9.943   6.863   3.974
 3869SOL    HW116454   9.856   6.849   3.936
 3869SOL    HW216455   9.977   6.775   3.989
 3870SOL     OW16456   0.173   7.415   4.648
 3870SOL    HW116457   0.164   7.326   4.613
 3870SOL    HW216458   0.084   7.450   4.648
 3871SOL     OW16459   0.472   7.153   4.619
 3871SOL    HW116460   0.513   7.238   4.634
 3871SOL    HW216461   0.531   7.109   4.557
 3872SOL     OW16462   0.932   6.341   4.953
 3872SOL    HW116463   0.996   6.307   5.015
 3872SOL    HW216464   0.848   6.309   4.986
 3873SOL     OW16465   0.035   6.169   4.922
 3873SOL    HW116466   0.112   6.147   4.869
 3873SOL    HW216467   9.970   6.199   4.858
 3874SOL     OW16468   0.309   6.122   5.385
 3874SOL    HW116469   0.370   6.067   5.336
 3874SOL    HW216470   0.235   6.134   5.325
 3875SOL     OW16471   1.416   6.497   5.375
 3875SOL    HW116472   1.425   6.592   5.368
 3875SOL    HW216473   1.396   6.468   5.286
 3876SOL     OW16474   1.610   6.205   4.931
 3876SOL    HW116475   1.540   6.189   4.994
 3876SOL    HW216476   1.672   6.133   4.946
 3877SOL     OW16477   0.284   7.138   5.503
 3877SOL    HW116478   0.218   7.201   5.532
 3877SOL    HW216479   0.235   7.074   5.452
 3878SOL     OW16480   0.756   6.007   4.948
 3878SOL    HW116481   0.695   5.935   4.932
 3878SOL    HW216482   0.748   6.063   4.871
 3879SOL     OW16483   1.012   7.255   5.131
 3879SOL    HW116484   0.965   7.214   5.058
 3879SOL    HW216485   1.046   7.337   5.096
 3880SOL     OW16486   0.173   6.759   5.136
 3880SOL    HW116487   0.142   6.718   5.216
 3880SOL    HW216488   0.186   6.687   5.074
 3881SOL     OW16489   1.304   6.621   4.916
 3881SOL    HW116490   1.309   6.553   4.849
 3881SOL    HW216491   1.255   6.692   4.875
 3882SOL     OW16492   1.387   6.404   4.028
 3882SOL    HW116493   1.310   6.413   4.085
 3882SOL    HW216494   1.350   6.387   3.942
 3883SOL     OW16495   1.752   7.283   4.871
 3883SOL    HW116496   1.822   7.322   4.819
 3883SOL    HW216497   1.737   7.198   4.830
 3884SOL     OW16498   1.251   7.288   4.743
 3884SOL    HW116499   1.338   7.327   4.740
 3884SOL    HW216500   1.263   7.207   4.792
 3885SOL     OW16501   0.094   6.733   4.797
 3885SOL    HW116502   0.057   6.807   4.845
 3885SOL    HW216503   0.019   6.677   4.777
 3886SOL     OW16504   0.694   7.273   5.419
 3886SOL    HW116505   0.684   7.363   5.449
 3886SOL    HW216506   0.659   7.272   5.330
 3887SOL     OW16507   1.720   5.764   4.259
 3887SOL    HW116508   1.683   5.824   4.194
 3887SOL    HW216509   1.645   5.709   4.285
 3888SOL     OW16510   1.405   7.159   4.209
 3888SOL    HW116511   1.448   7.194   4.130
 3888SOL    HW216512   1.343   7.227   4.235
 3889SOL     OW16513   0.111   7.334   5.598
 3889SOL    HW116514   0.060   7.295   5.669
 3889SOL    HW216515   0.169   7.397   5.641
 3890SOL     OW16516   1.273   6.509   4.306
 3890SOL    HW116517   1.347   6.457   4.339
 3890SOL    HW216518   1.311   6.594   4.285
 3891SOL     OW16519   0.769   6.843   5.150
 3891SOL    HW116520   0.750   6.896   5.228
 3891SOL    HW216521   0.696   6.860   5.091
 3892SOL     OW16522   0.735   7.194   3.843
 3892SOL    HW116523   0.717   7.240   3.761
 3892SOL    HW216524   0.655   7.144   3.861
 3893SOL     OW16525   1.606   7.291   5.115
 3893SOL    HW116526   1.653   7.290   5.032
 3893SOL    HW216527   1.592   7.383   5.134
 3894SOL     OW16528   1.824   5.765   4.694
 3894SOL    HW116529   1.853   5.677   4.668
 3894SOL    HW216530   1.733   5.770   4.667
 3895SOL     OW16531   0.275   5.914   4.465
 3895SOL    HW116532   0.193   5.941   4.424
 3895SOL    HW216533   0.251   5.896   4.556
 3896SOL     OW16534   1.186   7.154   3.743
 3896SOL    HW116535   1.175   7.066   3.778
 3896SOL    HW216536   1.113   7.165   3.682
 3897SOL     OW16537   0.812   6.573   5.123
 3897SOL    HW116538   0.840   6.563   5.032
 3897SOL    HW216539   0.799   6.668   5.133
 3898SOL     OW16540   0.929   6.502   4.067
 3898SOL    HW116541   0.994   6.509   3.997
 3898SOL    HW216542   0.956   6.424   4.116
 3899SOL     OW16543   1.463   7.183   3.755
 3899SOL    HW116544   1.367   7.186   3.761
 3899SOL    HW216545   1.480   7.174   3.661
 3900SOL     OW16546   0.360   6.938   5.232
 3900SOL    HW116547   0.365   7.008   5.168
 3900SOL    HW216548   0.299   6.874   5.194
 3901SOL     OW16549   1.612   6.876   4.997
 3901SOL    HW116550   1.662   6.859   5.077
 3901SOL    HW216551   1.541   6.934   5.026
 3902SOL     OW16552   1.132   6.674   4.488
 3902SOL    HW116553   1.046   6.644   4.517
 3902SOL    HW216554   1.158   6.612   4.421
 3903SOL     OW16555   1.035   5.841   4.629
 3903SOL    HW116556   1.032   5.777   4.558
 3903SOL    HW216557   1.002   5.793   4.706
 3904SOL     OW16558   0.632   7.112   4.190
 3904SOL    HW116559   0.669   7.044   4.133
 3904SOL    HW216560   0.570   7.159   4.135
 3905SOL     OW16561   1.790   6.006   4.997
 3905SOL    HW116562   1.859   6.034   5.057
 3905SOL    HW216563   1.796   5.911   4.996
 3906SOL     OW16564   0.252   6.910   3.967
 3906SOL    HW116565   0.171   6.859   3.970
 3906SOL    HW216566   0.255   6.956   4.050
 3907SOL     OW16567   0.099   6.644   5.382
 3907SOL    HW116568   0.012   6.679   5.400
 3907SOL    HW216569   0.156   6.686   5.446
 3908SOL     OW16570   0.680   5.802   5.254
 3908SOL    HW116571   0.764   5.816   5.210
 3908SOL    HW216572   0.698   5.817   5.346
 3909SOL     OW16573   0.047   5.878   3.689
 3909SOL    HW116574   9.990   5.852   3.617
 3909SOL    HW216575   0.091   5.957   3.658
 3910SOL     OW16576   1.411   6.450   5.106
 3910SOL    HW116577   1.354   6.501   5.049
 3910SOL    HW216578   1.498   6.458   5.066
 3911SOL     OW16579   0.040   5.738   3.923
 3911SOL    HW116580   0.048   5.791   3.844
 3911SOL    HW216581   0.129   5.709   3.942
 3912SOL     OW16582   1.167   6.902   3.852
 3912SOL    HW116583   1.071   6.896   3.853
 3912SOL    HW216584   1.192   6.901   3.944
 3913SOL     OW16585   0.597   6.413   5.194
 3913SOL    HW116586   0.662   6.482   5.181
 3913SOL    HW216587   0.646   6.331   5.184
 3914SOL     OW16588   1.511   7.373   4.742
 3914SOL    HW116589   1.519   7.465   4.717
 3914SOL    HW216590   1.588   7.356   4.796
 3915SOL     OW16591   0.755   6.108   5.409
 3915SOL    HW116592   0.807   6.163   5.468
 3915SOL    HW216593   0.750   6.024   5.454
 3916SOL     OW16594   1.463   6.767   5.339
 3916SOL    HW116595   1.426   6.811   5.416
 3916SOL    HW216596   1.541   6.819   5.318
 3917SOL     OW16597   0.373   7.322   5.307
 3917SOL    HW116598   0.289   7.366   5.300
 3917SOL    HW216599   0.359   7.252   5.371
 3918SOL     OW16600   1.659   6.478   4.969
 3918SOL    HW116601   1.648   6.389   4.936
 3918SOL    HW216602   1.642   6.534   4.893
 3919SOL     OW16603   1.313   5.916   4.166
 3919SOL    HW116604   1.260   5.836   4.170
 3919SOL    HW216605   1.319   5.945   4.257
 3920SOL     OW16606   1.811   5.957   5.300
 3920SOL    HW116607   1.745   5.991   5.241
 3920SOL    HW216608   1.763   5.906   5.365
 3921SOL     OW16609   1.757   6.540   5.218
 3921SOL    HW116610   1.724   6.629   5.232
 3921SOL    HW216611   1.727   6.517   5.130
 3922SOL     OW16612   0.884   6.955   3.837
 3922SOL    HW116613   0.843   6.931   3.920
 3922SOL    HW216614   0.854   7.044   3.820
 3923SOL     OW16615   0.608   7.394   4.663
 3923SOL    HW116616   0.577   7.484   4.646
 3923SOL    HW216617   0.684   7.406   4.719
 3924SOL     OW16618   0.890   6.579   4.593
 3924SOL    HW116619   0.934   6.503   4.631
 3924SOL    HW216620   0.841   6.618   4.666
 3925SOL     OW16621   1.100   6.547   3.851
 3925SOL    HW116622   1.061   6.585   3.773
 3925SOL    HW216623   1.165   6.485   3.818
 3926SOL     OW16624   1.826   7.162   4.569
 3926SOL    HW116625   1.751   7.168   4.510
 3926SOL    HW216626   1.799   7.101   4.637
 3927SOL     OW16627   0.235   6.807   5.577
 3927SOL    HW116628   0.163   6.868   5.559
 3927SOL    HW216629   0.250   6.815   5.671
 3928SOL     OW16630   0.089   6.742   4.387
 3928SOL    HW116631   0.077   6.662   4.438
 3928SOL    HW216632   0.168   6.727   4.336
 3929SOL     OW16633   0.704   6.994   5.374
 3929SOL    HW116634   0.626   6.951   5.407
 3929SOL    HW216635   0.694   7.086   5.400
 3930SOL     OW16636   1.831   5.733   4.966
 3930SOL    HW116637   1.788   5.649   4.979
 3930SOL    HW216638   1.827   5.749   4.872
 3931SOL     OW16639   0.494   5.947   4.263
 3931SOL    HW116640   0.482   6.004   4.187
 3931SOL    HW216641   0.409   5.948   4.308
 3932SOL     OW16642   1.713   7.024   4.782
 3932SOL    HW116643   1.633   7.013   4.729
 3932SOL    HW216644   1.698   6.970   4.859
 3933SOL     OW16645   0.367   6.148   5.031
 3933SOL    HW116646   0.410   6.077   5.079
 3933SOL    HW216647   0.341   6.107   4.948
 3934SOL     OW16648   0.835   7.194   4.378
 3934SOL    HW116649   0.781   7.204   4.299
 3934SOL    HW216650   0.782   7.139   4.436
 3935SOL     OW16651   0.972   5.667   4.837
 3935SOL    HW116652   0.939   5.585   4.874
 3935SOL    HW216653   1.045   5.692   4.894
 3936SOL     OW16654   0.775   6.898   4.080
 3936SOL    HW116655   0.746   6.808   4.095
 3936SOL    HW216656   0.852   6.908   4.137
 3937SOL     OW16657   0.627   7.157   5.016
 3937SOL    HW116658   0.627   7.238   5.067
 3937SOL    HW216659   0.716   7.151   4.981
 3938SOL     OW16660   1.345   5.648   3.879
 3938SOL    HW116661   1.389   5.581   3.826
 3938SOL    HW216662   1.265   5.605   3.909
 3939SOL     OW16663   1.342   6.008   4.421
 3939SOL    HW116664   1.286   6.085   4.421
 3939SOL    HW216665   1.322   5.963   4.504
 3940SOL     OW16666   1.557   5.785   4.614
 3940SOL    HW116667   1.466   5.807   4.635
 3940SOL    HW216668   1.588   5.860   4.563
 3941SOL     OW16669   0.044   6.617   4.004
 3941SOL    HW116670   0.134   6.585   4.003
 3941SOL    HW216671   9.992   6.538   4.020
 3942SOL     OW16672   0.909   7.269   4.053
 3942SOL    HW116673   0.846   7.253   3.983
 3942SOL    HW216674   0.882   7.352   4.091
 3943SOL     OW16675   0.292   6.127   5.663
 3943SOL    HW116676   0.232   6.196   5.689
 3943SOL    HW216677   0.297   6.134   5.567
 3944SOL     OW16678   0.154   5.799   6.571
 3944SOL    HW116679   0.193   5.792   6.658
 3944SOL    HW216680   0.067   5.759   6.581
 3945SOL     OW16681   0.017   6.010   6.238
 3945SOL    HW116682   9.976   6.021   6.324
 3945SOL    HW216683   9.944   5.994   6.178
 3946SOL     OW16684   0.578   6.892   6.791
 3946SOL    HW116685   0.494   6.896   6.744
 3946SOL    HW216686   0.597   6.984   6.813
 3947SOL     OW16687   1.547   7.148   6.288
 3947SOL    HW116688   1.476   7.154   6.352
 3947SOL    HW216689   1.502   7.141   6.203
 3948SOL     OW16690   1.149   6.284   6.290
 3948SOL    HW116691   1.187   6.371   6.278
 3948SOL    HW216692   1.109   6.288   6.377
 3949SOL     OW16693   1.798   6.149   5.807
 3949SOL    HW116694   1.760   6.151   5.719
 3949SOL    HW216695   1.747   6.083   5.853
 3950SOL     OW16696   0.736   6.720   6.637
 3950SOL    HW116697   0.675   6.758   6.699
 3950SOL    HW216698   0.771   6.795   6.588
 3951SOL     OW16699   0.911   6.278   7.406
 3951SOL    HW116700   0.904   6.323   7.490
 3951SOL    HW216701   0.923   6.349   7.342
 3952SOL     OW16702   0.744   6.635   6.244
 3952SOL    HW116703   0.770   6.593   6.326
 3952SOL    HW216704   0.661   6.679   6.266
 3953SOL     OW16705   0.745   6.782   7.406
 3953SOL    HW116706   0.788   6.845   7.464
 3953SOL    HW216707   0.691   6.836   7.347
 3954SOL     OW16708   0.356   6.989   6.653
 3954SOL    HW116709   0.285   6.962   6.594
 3954SOL    HW216710   0.403   7.056   6.603
 3955SOL     OW16711   1.476   7.072   7.034
 3955SOL    HW116712   1.519   7.154   7.012
 3955SOL    HW216713   1.383   7.088   7.018
 3956SOL     OW16714   0.498   5.966   7.022
 3956SOL    HW116715   0.560   5.896   7.042
 3956SOL    HW216716   0.414   5.933   7.054
 3957SOL     OW16717   0.261   7.199   5.993
 3957SOL    HW116718   0.220   7.279   6.027
 3957SOL    HW216719   0.351   7.225   5.973
 3958SOL     OW16720   1.185   6.876   7.229
 3958SOL    HW116721   1.207   6.929   7.305
 3958SOL    HW216722   1.121   6.812   7.261
 3959SOL     OW16723   0.183   6.997   6.172
 3959SOL    HW116724   0.212   7.076   6.126
 3959SOL    HW216725   0.092   7.015   6.195
 3960SOL     OW16726   0.316   6.657   6.499
 3960SOL    HW116727   0.292   6.565   6.511
 3960SOL    HW216728   0.252   6.706   6.551
 3961SOL     OW16729   0.629   7.365   7.041
 3961SOL    HW116730   0.536   7.365   7.061
 3961SOL    HW216731   0.654   7.457   7.040
 3962SOL     OW16732   0.610   6.554   5.735
 3962SOL    HW116733   0.652   6.610   5.670
 3962SOL    HW216734   0.642   6.588   5.819
 3963SOL     OW16735   1.592   5.744   7.017
 3963SOL    HW116736   1.514   5.769   6.966
 3963SOL    HW216737   1.557   5.721   7.103
 3964SOL     OW16738   0.153   6.242   6.134
 3964SOL    HW116739   0.111   6.164   6.168
 3964SOL    HW216740   0.128   6.312   6.195
 3965SOL     OW16741   1.878   7.297   5.938
 3965SOL    HW116742   1.808   7.306   6.003
 3965SOL    HW216743   1.887   7.384   5.900
 3966SOL     OW16744   0.032   7.210   5.837
 3966SOL    HW116745   0.016   7.118   5.818
 3966SOL    HW216746   0.116   7.212   5.883
 3967SOL     OW16747   1.684   6.548   6.259
 3967SOL    HW116748   1.776   6.527   6.242
 3967SOL    HW216749   1.656   6.596   6.182
 3968SOL     OW16750   1.654   6.740   6.025
 3968SOL    HW116751   1.744   6.714   6.006
 3968SOL    HW216752   1.663   6.811   6.089
 3969SOL     OW16753   0.151   6.325   7.169
 3969SOL    HW116754   0.246   6.339   7.173
 3969SOL    HW216755   0.120   6.348   7.256
 3970SOL     OW16756   0.619   6.980   6.329
 3970SOL    HW116757   0.569   6.899   6.322
 3970SOL    HW216758   0.616   7.018   6.242
 3971SOL     OW16759   1.356   6.750   7.035
 3971SOL    HW116760   1.328   6.705   6.956
 3971SOL    HW216761   1.275   6.771   7.081
 3972SOL     OW16762   0.848   5.617   6.093
 3972SOL    HW116763   0.864   5.707   6.065
 3972SOL    HW216764   0.755   5.603   6.074
 3973SOL     OW16765   0.147   6.501   6.843
 3973SOL    HW116766   0.234   6.467   6.825
 3973SOL    HW216767   0.137   6.573   6.782
 3974SOL     OW16768   1.530   6.545   5.797
 3974SOL    HW116769   1.481   6.505   5.725
 3974SOL    HW216770   1.486   6.513   5.876
 3975SOL     OW16771   1.228   7.420   7.207
 3975SOL    HW116772   1.247   7.505   7.167
 3975SOL    HW216773   1.159   7.383   7.152
 3976SOL     OW16774   0.260   5.798   7.356
 3976SOL    HW116775   0.253   5.856   7.431
 3976SOL    HW216776   0.210   5.720   7.381
 3977SOL     OW16777   1.495   6.918   6.624
 3977SOL    HW116778   1.424   6.966   6.667
 3977SOL    HW216779   1.453   6.876   6.549
 3978SOL     OW16780   1.673   7.358   6.111
 3978SOL    HW116781   1.608   7.350   6.040
 3978SOL    HW216782   1.634   7.311   6.185
 3979SOL     OW16783   0.603   6.305   5.877
 3979SOL    HW116784   0.593   6.388   5.830
 3979SOL    HW216785   0.536   6.307   5.946
 3980SOL     OW16786   1.282   5.970   6.511
 3980SOL    HW116787   1.194   5.934   6.518
 3980SOL    HW216788   1.335   5.914   6.568
 3981SOL     OW16789   1.544   7.319   5.857
 3981SOL    HW116790   1.561   7.407   5.824
 3981SOL    HW216791   1.526   7.267   5.779
 3982SOL     OW16792   0.780   6.191   6.965
 3982SOL    HW116793   0.783   6.159   7.056
 3982SOL    HW216794   0.759   6.114   6.913
 3983SOL     OW16795   1.467   6.070   7.282
 3983SOL    HW116796   1.429   6.112   7.359
 3983SOL    HW216797   1.501   5.986   7.315
 3984SOL     OW16798   0.951   6.460   7.194
 3984SOL    HW116799   1.004   6.397   7.145
 3984SOL    HW216800   0.894   6.501   7.129
 3985SOL     OW16801   1.014   5.988   6.763
 3985SOL    HW116802   0.922   5.980   6.788
 3985SOL    HW216803   1.024   5.928   6.689
 3986SOL     OW16804   1.080   6.299   6.020
 3986SOL    HW116805   1.090   6.282   6.114
 3986SOL    HW216806   0.994   6.263   5.999
 3987SOL     OW16807   0.088   6.432   6.335
 3987SOL    HW116808   0.160   6.414   6.396
 3987SOL    HW216809   0.065   6.523   6.352
 3988SOL     OW16810   0.116   7.451   7.208
 3988SOL    HW116811   0.135   7.437   7.300
 3988SOL    HW216812   0.059   7.378   7.183
 3989SOL     OW16813   0.875   5.970   5.769
 3989SOL    HW116814   0.945   5.992   5.708
 3989SOL    HW216815   0.806   5.932   5.714
 3990SOL     OW16816   1.797   6.168   7.394
 3990SOL    HW116817   1.742   6.240   7.360
 3990SOL    HW216818   1.796   6.103   7.324
 3991SOL     OW16819   1.387   6.749   6.133
 3991SOL    HW116820   1.469   6.749   6.083
 3991SOL    HW216821   1.331   6.810   6.086
 3992SOL     OW16822   0.629   5.802   6.427
 3992SOL    HW116823   0.580   5.830   6.504
 3992SOL    HW216824   0.562   5.780   6.362
 3993SOL     OW16825   0.995   7.055   6.052
 3993SOL    HW116826   0.969   7.117   5.983
 3993SOL    HW216827   0.962   7.094   6.133
 3994SOL     OW16828   0.329   7.401   6.474
 3994SOL    HW116829   0.377   7.319   6.484
 3994SOL    HW216830   0.387   7.468   6.511
 3995SOL     OW16831   1.805   6.695   6.465
 3995SOL    HW116832   1.763   6.653   6.390
 3995SOL    HW216833   1.740   6.689   6.535
 3996SOL     OW16834   1.196   7.064   7.021
 3996SOL    HW116835   1.185   7.015   7.103
 3996SOL    HW216836   1.125   7.129   7.022
 3997SOL     OW16837   0.259   6.512   5.860
 3997SOL    HW116838   0.305   6.504   5.776
 3997SOL    HW216839   0.205   6.433   5.866
 3998SOL     OW16840   1.485   6.355   6.314
 3998SOL    HW116841   1.478   6.313   6.400
 3998SOL    HW216842   1.557   6.417   6.324
 3999SOL     OW16843   1.151   7.327   5.775
 3999SOL    HW116844   1.069   7.300   5.816
 3999SOL    HW216845   1.162   7.268   5.701
 4000SOL     OW16846   0.246   5.881   7.094
 4000SOL    HW116847   0.156   5.867   7.066
 4000SOL    HW216848   0.251   5.840   7.180
 4001SOL     OW16849   1.580   6.925   5.693
 4001SOL    HW116850   1.562   7.017   5.674
 4001SOL    HW216851   1.499   6.879   5.668
 4002SOL     OW16852   0.516   7.298   5.942
 4002SOL    HW116853   0.529   7.378   5.993
 4002SOL    HW216854   0.525   7.326   5.851
 4003SOL     OW16855   1.375   5.691   5.971
 4003SOL    HW116856   1.333   5.677   5.886
 4003SOL    HW216857   1.439   5.620   5.978
 4004SOL     OW16858   0.218   7.357   6.866
 4004SOL    HW116859   0.263   7.276   6.889
 4004SOL    HW216860   0.181   7.341   6.780
 4005SOL     OW16861   0.934   7.290   6.483
 4005SOL    HW116862   0.923   7.223   6.551
 4005SOL    HW216863   0.901   7.248   6.403
 4006SOL     OW16864   0.430   6.256   6.092
 4006SOL    HW116865   0.448   6.168   6.123
 4006SOL    HW216866   0.335   6.265   6.099
 4007SOL     OW16867   1.699   5.831   7.404
 4007SOL    HW116868   1.635   5.866   7.466
 4007SOL    HW216869   1.651   5.765   7.355
 4008SOL     OW16870   0.653   5.662   5.691
 4008SOL    HW116871   0.685   5.578   5.721
 4008SOL    HW216872   0.588   5.641   5.624
 4009SOL     OW16873   0.751   5.840   7.329
 4009SOL    HW116874   0.788   5.781   7.395
 4009SOL    HW216875   0.658   5.821   7.330
 4010SOL     OW16876   0.880   7.111   6.732
 4010SOL    HW116877   0.843   7.063   6.658
 4010SOL    HW216878   0.922   7.044   6.785
 4011SOL     OW16879   1.334   6.162   7.052
 4011SOL    HW116880   1.384   6.129   7.126
 4011SOL    HW216881   1.375   6.246   7.030
 4012SOL     OW16882   0.822   6.956   6.514
 4012SOL    HW116883   0.905   6.956   6.467
 4012SOL    HW216884   0.755   6.969   6.447
 4013SOL     OW16885   0.860   6.148   6.458
 4013SOL    HW116886   0.872   6.124   6.366
 4013SOL    HW216887   0.848   6.064   6.503
 4014SOL     OW16888   1.356   6.786   5.632
 4014SOL    HW116889   1.312   6.704   5.652
 4014SOL    HW216890   1.289   6.854   5.647
 4015SOL     OW16891   0.354   5.630   5.781
 4015SOL    HW116892   0.355   5.698   5.713
 4015SOL    HW216893   0.318   5.553   5.737
 4016SOL     OW16894   0.949   5.866   6.017
 4016SOL    HW116895   0.919   5.894   5.931
 4016SOL    HW216896   1.044   5.878   6.015
 4017SOL     OW16897   1.079   6.271   7.039
 4017SOL    HW116898   1.020   6.196   7.036
 4017SOL    HW216899   1.167   6.233   7.047
 4018SOL     OW16900   1.271   7.168   6.380
 4018SOL    HW116901   1.264   7.237   6.313
 4018SOL    HW216902   1.255   7.213   6.463
 4019SOL     OW16903   0.491   6.736   6.297
 4019SOL    HW116904   0.429   6.715   6.367
 4019SOL    HW216905   0.441   6.724   6.217
 4020SOL     OW16906   1.271   7.382   6.197
 4020SOL    HW116907   1.315   7.449   6.145
 4020SOL    HW216908   1.195   7.428   6.234
 4021SOL     OW16909   1.069   6.084   5.608
 4021SOL    HW116910   1.020   6.162   5.581
 4021SOL    HW216911   1.115   6.111   5.687
 4022SOL     OW16912   0.126   6.186   6.931
 4022SOL    HW116913   0.216   6.164   6.907
 4022SOL    HW216914   0.134   6.231   7.015
 4023SOL     OW16915   0.537   5.805   6.700
 4023SOL    HW116916   0.562   5.713   6.690
 4023SOL    HW216917   0.450   5.802   6.740
 4024SOL     OW16918   0.880   6.073   6.197
 4024SOL    HW116919   0.851   6.122   6.121
 4024SOL    HW216920   0.899   5.985   6.164
 4025SOL     OW16921   1.001   5.630   6.329
 4025SOL    HW116922   0.944   5.631   6.253
 4025SOL    HW216923   0.966   5.562   6.386
 4026SOL     OW16924   1.396   6.740   6.425
 4026SOL    HW116925   1.319   6.684   6.432
 4026SOL    HW216926   1.404   6.757   6.331
 4027SOL     OW16927   1.446   6.208   6.550
 4027SOL    HW116928   1.390   6.131   6.544
 4027SOL    HW216929   1.510   6.187   6.618
 4028SOL     OW16930   1.880   6.384   5.934
 4028SOL    HW116931   1.907   6.353   6.021
 4028SOL    HW216932   1.851   6.305   5.889
 4029SOL     OW16933   0.467   7.064   5.703
 4029SOL    HW116934   0.413   7.011   5.761
 4029SOL    HW216935   0.409   7.089   5.632
 4030SOL     OW16936   1.701   6.923   6.215
 4030SOL    HW116937   1.791   6.931   6.247
 4030SOL    HW216938   1.656   6.999   6.251
 4031SOL     OW16939   1.393   6.130   5.643
 4031SOL    HW116940   1.323   6.129   5.708
 4031SOL    HW216941   1.440   6.048   5.657
 4032SOL     OW16942   0.574   5.806   5.919
 4032SOL    HW116943   0.608   5.760   5.843
 4032SOL    HW216944   0.554   5.894   5.887
 4033SOL     OW16945   1.752   6.871   7.137
 4033SOL    HW116946   1.836   6.828   7.121
 4033SOL    HW216947   1.776   6.956   7.175
 4034SOL     OW16948   0.981   6.908   6.888
 4034SOL    HW116949   0.901   6.884   6.935
 4034SOL    HW216950   1.042   6.933   6.958
 4035SOL     OW16951   1.570   7.261   7.266
 4035SOL    HW116952   1.582   7.286   7.174
 4035SOL    HW216953   1.647   7.209   7.287
 4036SOL     OW16954   1.137   6.823   6.676
 4036SOL    HW116955   1.063   6.840   6.734
 4036SOL    HW216956   1.109   6.856   6.591
 4037SOL     OW16957   1.584   6.654   6.626
 4037SOL    HW116958   1.563   6.741   6.660
 4037SOL    HW216959   1.519   6.639   6.558
 4038SOL     OW16960   0.982   5.675   7.016
 4038SOL    HW116961   1.016   5.676   6.927
 4038SOL    HW216962   0.966   5.583   7.036
 4039SOL     OW16963   1.006   6.691   7.333
 4039SOL    HW116964   0.919   6.720   7.361
 4039SOL    HW216965   0.990   6.609   7.287
 4040SOL     OW16966   0.743   6.634   5.968
 4040SOL    HW116967   0.739   6.630   6.063
 4040SOL    HW216968   0.830   6.599   5.946
 4041SOL     OW16969   0.408   6.400   6.828
 4041SOL    HW116970   0.468   6.414   6.901
 4041SOL    HW216971   0.393   6.305   6.828
 4042SOL     OW16972   1.278   5.968   6.855
 4042SOL    HW116973   1.295   6.033   6.923
 4042SOL    HW216974   1.186   5.982   6.831
 4043SOL     OW16975   9.994   7.154   6.893
 4043SOL    HW116976   9.903   7.148   6.863
 4043SOL    HW216977   0.034   7.218   6.834
 4044SOL     OW16978   0.364   6.701   6.054
 4044SOL    HW116979   0.356   6.777   5.996
 4044SOL    HW216980   0.331   6.628   6.001
 4045SOL     OW16981   0.534   6.136   6.446
 4045SOL    HW116982   0.530   6.087   6.364
 4045SOL    HW216983   0.451   6.117   6.490
 4046SOL     OW16984   1.244   6.951   5.991
 4046SOL    HW116985   1.299   7.027   6.012
 4046SOL    HW216986   1.157   6.977   6.022
 4047SOL     OW16987   1.284   7.041   6.758
 4047SOL    HW116988   1.256   7.052   6.849
 4047SOL    HW216989   1.231   6.968   6.726
 4048SOL     OW16990   1.579   6.182   6.122
 4048SOL    HW116991   1.531   6.226   6.191
 4048SOL    HW216992   1.555   6.229   6.042
 4049SOL     OW16993   0.361   7.116   6.899
 4049SOL    HW116994   0.339   7.067   6.819
 4049SOL    HW216995   0.453   7.140   6.888
 4050SOL     OW16996   0.425   6.332   7.209
 4050SOL    HW116997   0.487   6.360   7.142
 4050SOL    HW216998   0.458   6.247   7.238
 4051SOL     OW16999   1.666   6.385   7.287
 4051SOL    HW117000   1.571   6.392   7.285
 4051SOL    HW217001   1.695   6.417   7.201
 4052SOL     OW17002   0.513   5.702   7.333
 4052SOL    HW117003   0.489   5.621   7.287
 4052SOL    HW217004   0.429   5.748   7.345
 4053SOL     OW17005   0.554   6.443   6.599
 4053SOL    HW117006   0.568   6.537   6.593
 4053SOL    HW217007   0.506   6.431   6.682
 4054SOL     OW17008   1.299   6.439   6.594
 4054SOL    HW117009   1.210   6.409   6.576
 4054SOL    HW217010   1.353   6.361   6.582
 4055SOL     OW17011   1.204   6.128   5.843
 4055SOL    HW117012   1.213   6.048   5.895
 4055SOL    HW217013   1.162   6.190   5.902
 4056SOL     OW17014   0.288   5.779   6.822
 4056SOL    HW117015   0.267   5.811   6.910
 4056SOL    HW217016   0.266   5.686   6.825
 4057SOL     OW17017   0.107   6.902   6.923
 4057SOL    HW117018   0.024   6.861   6.947
 4057SOL    HW217019   0.085   6.994   6.910
 4058SOL     OW17020   1.741   6.583   7.460
 4058SOL    HW117021   1.722   6.505   7.407
 4058SOL    HW217022   1.666   6.590   7.519
 4059SOL     OW17023   0.426   5.686   6.254
 4059SOL    HW117024   0.353   5.745   6.271
 4059SOL    HW217025   0.408   5.609   6.308
 4060SOL     OW17026   1.633   5.966   5.950
 4060SOL    HW117027   1.649   5.887   6.002
 4060SOL    HW217028   1.588   6.026   6.010
 4061SOL     OW17029   1.040   6.333   6.558
 4061SOL    HW117030   1.018   6.346   6.650
 4061SOL    HW217031   0.988   6.258   6.530
 4062SOL     OW17032   0.991   7.157   7.260
 4062SOL    HW117033   0.968   7.186   7.172
 4062SOL    HW217034   0.907   7.152   7.307
 4063SOL     OW17035   1.822   7.121   7.227
 4063SOL    HW117036   1.864   7.145   7.145
 4063SOL    HW217037   1.880   7.155   7.295
 4064SOL     OW17038   0.417   6.581   7.340
 4064SOL    HW117039   0.468   6.579   7.421
 4064SOL    HW217040   0.420   6.491   7.308
 4065SOL     OW17041   1.507   5.890   5.712
 4065SOL    HW117042   1.451   5.813   5.709
 4065SOL    HW217043   1.535   5.897   5.803
 4066SOL     OW17044   1.362   6.403   5.625
 4066SOL    HW117045   1.374   6.308   5.623
 4066SOL    HW217046   1.371   6.430   5.534
 4067SOL     OW17047   1.086   6.948   6.431
 4067SOL    HW117048   1.091   6.875   6.369
 4067SOL    HW217049   1.150   7.011   6.398
 4068SOL     OW17050   0.295   6.374   6.508
 4068SOL    HW117051   0.388   6.388   6.524
 4068SOL    HW217052   0.281   6.281   6.525
 4069SOL     OW17053   0.276   6.093   6.548
 4069SOL    HW117054   0.195   6.089   6.599
 4069SOL    HW217055   0.268   6.024   6.482
 4070SOL     OW17056   9.968   6.950   5.791
 4070SOL    HW117057   9.973   6.949   5.695
 4070SOL    HW217058   9.995   6.862   5.817
 4071SOL     OW17059   0.089   7.304   6.630
 4071SOL    HW117060   0.013   7.270   6.583
 4071SOL    HW217061   0.143   7.344   6.563
 4072SOL     OW17062   0.497   7.166   6.499
 4072SOL    HW117063   0.560   7.238   6.502
 4072SOL    HW217064   0.535   7.104   6.437
 4073SOL     OW17065   0.945   6.365   6.814
 4073SOL    HW117066   1.013   6.357   6.881
 4073SOL    HW217067   0.872   6.313   6.847
 4074SOL     OW17068   0.038   6.080   6.694
 4074SOL    HW117069   9.992   5.999   6.716
 4074SOL    HW217070   0.064   6.117   6.778
 4075SOL     OW17071   0.119   6.068   7.279
 4075SOL    HW117072   0.163   6.017   7.212
 4075SOL    HW217073   0.113   6.156   7.242
 4076SOL     OW17074   1.413   6.480   7.243
 4076SOL    HW117075   1.421   6.575   7.248
 4076SOL    HW217076   1.396   6.462   7.150
 4077SOL     OW17077   0.842   6.185   5.945
 4077SOL    HW117078   0.845   6.110   5.885
 4077SOL    HW217079   0.761   6.230   5.922
 4078SOL     OW17080   1.670   6.194   6.738
 4078SOL    HW117081   1.685   6.138   6.814
 4078SOL    HW217082   1.709   6.145   6.664
 4079SOL     OW17083   0.281   7.160   7.326
 4079SOL    HW117084   0.247   7.235   7.375
 4079SOL    HW217085   0.205   7.103   7.313
 4080SOL     OW17086   0.743   5.951   6.828
 4080SOL    HW117087   0.735   5.898   6.908
 4080SOL    HW217088   0.675   5.917   6.770
 4081SOL     OW17089   0.979   7.234   6.992
 4081SOL    HW117090   0.929   7.207   6.915
 4081SOL    HW217091   0.989   7.329   6.982
 4082SOL     OW17092   0.520   6.050   5.803
 4082SOL    HW117093   0.559   6.134   5.826
 4082SOL    HW217094   0.443   6.072   5.751
 4083SOL     OW17095   0.174   6.626   7.085
 4083SOL    HW117096   0.108   6.580   7.137
 4083SOL    HW217097   0.169   6.585   6.998
 4084SOL     OW17098   1.282   6.620   6.800
 4084SOL    HW117099   1.295   6.556   6.730
 4084SOL    HW217100   1.232   6.690   6.759
 4085SOL     OW17101   1.347   6.395   5.941
 4085SOL    HW117102   1.268   6.378   5.992
 4085SOL    HW217103   1.320   6.378   5.850
 4086SOL     OW17104   1.747   7.325   6.753
 4086SOL    HW117105   1.823   7.350   6.700
 4086SOL    HW217106   1.735   7.232   6.735
 4087SOL     OW17107   1.277   7.290   6.633
 4087SOL    HW117108   1.367   7.316   6.616
 4087SOL    HW217109   1.284   7.207   6.680
 4088SOL     OW17110   0.112   6.732   6.697
 4088SOL    HW117111   0.142   6.799   6.758
 4088SOL    HW217112   0.018   6.745   6.689
 4089SOL     OW17113   0.660   7.251   7.294
 4089SOL    HW117114   0.598   7.313   7.331
 4089SOL    HW217115   0.671   7.279   7.203
 4090SOL     OW17116   1.734   5.762   6.112
 4090SOL    HW117117   1.796   5.750   6.041
 4090SOL    HW217118   1.696   5.676   6.127
 4091SOL     OW17119   1.397   7.179   6.054
 4091SOL    HW117120   1.436   7.223   5.978
 4091SOL    HW217121   1.341   7.245   6.094
 4092SOL     OW17122   0.169   7.368   7.467
 4092SOL    HW117123   0.120   7.316   7.530
 4092SOL    HW217124   0.218   7.430   7.521
 4093SOL     OW17125   1.275   6.524   6.244
 4093SOL    HW117126   1.350   6.467   6.263
 4093SOL    HW217127   1.312   6.595   6.192
 4094SOL     OW17128   0.743   6.850   7.011
 4094SOL    HW117129   0.704   6.890   7.090
 4094SOL    HW217130   0.676   6.861   6.944
 4095SOL     OW17131   0.719   7.171   5.680
 4095SOL    HW117132   0.700   7.219   5.600
 4095SOL    HW217133   0.635   7.133   5.706
 4096SOL     OW17134   1.597   7.317   6.991
 4096SOL    HW117135   1.646   7.326   6.910
 4096SOL    HW217136   1.568   7.406   7.012
 4097SOL     OW17137   1.855   5.677   6.592
 4097SOL    HW117138   1.842   5.584   6.574
 4097SOL    HW217139   1.778   5.720   6.556
 4098SOL     OW17140   0.250   5.896   6.340
 4098SOL    HW117141   0.173   5.926   6.290
 4098SOL    HW217142   0.214   5.849   6.415
 4099SOL     OW17143   1.196   7.179   5.543
 4099SOL    HW117144   1.185   7.094   5.587
 4099SOL    HW217145   1.217   7.157   5.452
 4100SOL     OW17146   0.812   6.584   6.990
 4100SOL    HW117147   0.845   6.577   6.900
 4100SOL    HW217148   0.789   6.677   7.000
 4101SOL     OW17149   0.995   6.546   5.913
 4101SOL    HW117150   1.053   6.569   5.841
 4101SOL    HW217151   1.029   6.463   5.946
 4102SOL     OW17152   1.489   7.179   5.620
 4102SOL    HW117153   1.398   7.202   5.600
 4102SOL    HW217154   1.536   7.190   5.537
 4103SOL     OW17155   0.327   6.909   7.093
 4103SOL    HW117156   0.353   6.994   7.058
 4103SOL    HW217157   0.256   6.879   7.037
 4104SOL     OW17158   1.067   6.711   6.291
 4104SOL    HW117159   0.984   6.687   6.250
 4104SOL    HW217160   1.126   6.638   6.269
 4105SOL     OW17161   1.049   5.802   6.556
 4105SOL    HW117162   1.030   5.763   6.470
 4105SOL    HW217163   1.037   5.731   6.618
 4106SOL     OW17164   0.640   7.097   6.082
 4106SOL    HW117165   0.670   7.036   6.015
 4106SOL    HW217166   0.590   7.163   6.033
 4107SOL     OW17167   1.783   6.016   6.922
 4107SOL    HW117168   1.878   6.033   6.920
 4107SOL    HW217169   1.775   5.924   6.897
 4108SOL     OW17170   0.284   6.925   5.872
 4108SOL    HW117171   0.205   6.873   5.887
 4108SOL    HW217172   0.274   7.000   5.931
 4109SOL     OW17173   0.068   6.632   7.353
 4109SOL    HW117174   9.981   6.607   7.323
 4109SOL    HW217175   0.053   6.683   7.433
 4110SOL     OW17176   0.732   5.788   7.058
 4110SOL    HW117177   0.817   5.751   7.035
 4110SOL    HW217178   0.740   5.813   7.150
 4111SOL     OW17179   0.046   5.869   5.553
 4111SOL    HW117180   9.990   5.792   5.553
 4111SOL    HW217181  -0.001   5.933   5.501
 4112SOL     OW17182   1.408   6.428   6.972
 4112SOL    HW117183   1.346   6.481   6.922
 4112SOL    HW217184   1.489   6.431   6.921
 4113SOL     OW17185   0.061   5.655   5.817
 4113SOL    HW117186   0.124   5.727   5.815
 4113SOL    HW217187   0.092   5.594   5.751
 4114SOL     OW17188   1.152   6.956   5.714
 4114SOL    HW117189   1.057   6.949   5.717
 4114SOL    HW217190   1.180   6.950   5.805
 4115SOL     OW17191   0.608   6.400   7.018
 4115SOL    HW117192   0.669   6.474   7.019
 4115SOL    HW217193   0.664   6.325   6.999
 4116SOL     OW17194   1.529   7.375   6.580
 4116SOL    HW117195   1.547   7.456   6.532
 4116SOL    HW217196   1.602   7.367   6.641
 4117SOL     OW17197   0.800   6.100   7.223
 4117SOL    HW117198   0.826   6.161   7.292
 4117SOL    HW217199   0.784   6.018   7.268
 4118SOL     OW17200   1.525   6.742   7.320
 4118SOL    HW117201   1.471   6.772   7.392
 4118SOL    HW217202   1.602   6.703   7.362
 4119SOL     OW17203   0.370   7.339   7.130
 4119SOL    HW117204   0.290   7.383   7.101
 4119SOL    HW217205   0.339   7.263   7.180
 4120SOL     OW17206   1.637   6.456   6.816
 4120SOL    HW117207   1.647   6.370   6.776
 4120SOL    HW217208   1.619   6.515   6.743
 4121SOL     OW17209   1.227   5.919   6.021
 4121SOL    HW117210   1.281   5.841   6.012
 4121SOL    HW217211   1.255   5.959   6.103
 4122SOL     OW17212   0.627   6.374   6.247
 4122SOL    HW117213   0.649   6.457   6.205
 4122SOL    HW217214   0.557   6.337   6.193
 4123SOL     OW17215   1.822   5.971   7.198
 4123SOL    HW117216   1.771   5.982   7.118
 4123SOL    HW217217   1.767   5.916   7.254
 4124SOL     OW17218   1.751   6.510   7.056
 4124SOL    HW117219   1.752   6.606   7.056
 4124SOL    HW217220   1.712   6.486   6.973
 4125SOL     OW17221   0.878   6.948   5.689
 4125SOL    HW117222   0.841   6.923   5.773
 4125SOL    HW217223   0.832   7.028   5.665
 4126SOL     OW17224   0.661   7.379   6.497
 4126SOL    HW117225   0.620   7.465   6.505
 4126SOL    HW217226   0.755   7.398   6.496
 4127SOL     OW17227   0.824   6.505   6.482
 4127SOL    HW117228   0.913   6.479   6.507
 4127SOL    HW217229   0.801   6.574   6.543
 4128SOL     OW17230   1.162   6.586   5.690
 4128SOL    HW117231   1.100   6.608   5.620
 4128SOL    HW217232   1.210   6.511   5.656
 4129SOL     OW17233   1.787   7.178   6.437
 4129SOL    HW117234   1.707   7.179   6.385
 4129SOL    HW217235   1.764   7.129   6.516
 4130SOL     OW17236   0.229   6.868   7.434
 4130SOL    HW117237   0.156   6.926   7.412
 4130SOL    HW217238   0.248   6.887   7.526
 4131SOL     OW17239   0.049   6.723   6.155
 4131SOL    HW117240   9.985   6.748   6.222
 4131SOL    HW217241   0.129   6.770   6.180
 4132SOL     OW17242   0.609   6.970   7.230
 4132SOL    HW117243   0.515   6.961   7.211
 4132SOL    HW217244   0.619   7.059   7.262
 4133SOL     OW17245   1.876   5.759   6.854
 4133SOL    HW117246   1.823   5.692   6.897
 4133SOL    HW217247   1.870   5.738   6.761
 4134SOL     OW17248   0.469   6.005   6.203
 4134SOL    HW117249   0.505   5.942   6.141
 4134SOL    HW217250   0.389   5.964   6.236
 4135SOL     OW17251   1.723   7.059   6.679
 4135SOL    HW117252   1.642   7.012   6.662
 4135SOL    HW217253   1.774   7.000   6.734
 4136SOL     OW17254   0.380   6.128   6.835
 4136SOL    HW117255   0.430   6.073   6.895
 4136SOL    HW217256   0.373   6.076   6.755
 4137SOL     OW17257   0.846   7.213   6.231
 4137SOL    HW117258   0.843   7.299   6.189
 4137SOL    HW217259   0.767   7.168   6.200
 4138SOL     OW17260   1.419   5.807   6.686
 4138SOL    HW117261   1.410   5.714   6.707
 4138SOL    HW217262   1.372   5.853   6.755
 4139SOL     OW17263   1.022   5.581   6.733
 4139SOL    HW117264   0.953   5.515   6.740
 4139SOL    HW217265   1.098   5.533   6.701
 4140SOL     OW17266   0.778   6.905   5.937
 4140SOL    HW117267   0.757   6.812   5.950
 4140SOL    HW217268   0.853   6.920   5.995
 4141SOL     OW17269   0.636   7.153   6.867
 4141SOL    HW117270   0.638   7.228   6.926
 4141SOL    HW217271   0.713   7.164   6.810
 4142SOL     OW17272   1.360   5.655   5.685
 4142SOL    HW117273   1.365   5.651   5.589
 4142SOL    HW217274   1.285   5.601   5.708
 4143SOL     OW17275   1.306   6.053   6.249
 4143SOL    HW117276   1.254   6.134   6.255
 4143SOL    HW217277   1.302   6.016   6.337
 4144SOL     OW17278   1.629   5.813   6.511
 4144SOL    HW117279   1.551   5.803   6.566
 4144SOL    HW217280   1.672   5.891   6.545
 4145SOL     OW17281   0.087   6.725   5.884
 4145SOL    HW117282   0.139   6.646   5.867
 4145SOL    HW217283   0.059   6.716   5.975
 4146SOL     OW17284   0.901   7.254   5.879
 4146SOL    HW117285   0.832   7.231   5.817
 4146SOL    HW217286   0.864   7.324   5.932
 4147SOL     OW17287   0.298   6.186   7.562
 4147SOL    HW117288   0.248   6.216   7.638
 4147SOL    HW217289   0.257   6.231   7.487
 4148SOL     OW17290   0.199   5.865   8.445
 4148SOL    HW117291   0.235   5.823   8.523
 4148SOL    HW217292   0.104   5.855   8.454
 4149SOL     OW17293   0.016   6.029   8.105
 4149SOL    HW117294   9.968   6.035   8.187
 4149SOL    HW217295   9.949   6.007   8.039
 4150SOL     OW17296   0.569   6.870   8.596
 4150SOL    HW117297   0.481   6.898   8.572
 4150SOL    HW217298   0.608   6.946   8.639
 4151SOL     OW17299   1.568   7.088   8.138
 4151SOL    HW117300   1.527   7.057   8.219
 4151SOL    HW217301   1.496   7.093   8.075
 4152SOL     OW17302   1.852   6.149   7.657
 4152SOL    HW117303   1.805   6.155   7.574
 4152SOL    HW217304   1.793   6.100   7.715
 4153SOL     OW17305   0.758   6.707   8.486
 4153SOL    HW117306   0.685   6.744   8.537
 4153SOL    HW217307   0.791   6.780   8.434
 4154SOL     OW17308   0.872   6.330   9.270
 4154SOL    HW117309   0.845   6.387   9.342
 4154SOL    HW217310   0.894   6.390   9.199
 4155SOL     OW17311   0.709   6.553   8.084
 4155SOL    HW117312   0.782   6.554   8.147
 4155SOL    HW217313   0.645   6.613   8.121
 4156SOL     OW17314   0.641   6.767   9.223
 4156SOL    HW117315   0.650   6.857   9.191
 4156SOL    HW217316   0.548   6.747   9.213
 4157SOL     OW17317   0.346   7.022   8.519
 4157SOL    HW117318   0.267   7.009   8.467
 4157SOL    HW217319   0.399   7.082   8.468
 4158SOL     OW17320   1.428   7.055   8.829
 4158SOL    HW117321   1.483   7.131   8.848
 4158SOL    HW217322   1.347   7.072   8.877
 4159SOL     OW17323   0.470   5.953   8.883
 4159SOL    HW117324   0.552   5.905   8.896
 4159SOL    HW217325   0.406   5.885   8.860
 4160SOL     OW17326   0.314   7.217   7.908
 4160SOL    HW117327   0.240   7.275   7.927
 4160SOL    HW217328   0.366   7.266   7.844
 4161SOL     OW17329   1.162   6.898   9.268
 4161SOL    HW117330   1.152   6.982   9.224
 4161SOL    HW217331   1.103   6.839   9.221
 4162SOL     OW17332   0.252   6.941   7.958
 4162SOL    HW117333   0.254   7.036   7.973
 4162SOL    HW217334   0.195   6.907   8.026
 4163SOL     OW17335   0.286   6.649   8.321
 4163SOL    HW117336   0.317   6.560   8.330
 4163SOL    HW217337   0.214   6.656   8.383
 4164SOL     OW17338   0.702   7.318   8.860
 4164SOL    HW117339   0.698   7.301   8.954
 4164SOL    HW217340   0.687   7.412   8.853
 4165SOL     OW17341   0.578   6.603   7.573
 4165SOL    HW117342   0.631   6.663   7.521
 4165SOL    HW217343   0.630   6.587   7.652
 4166SOL     OW17344   1.637   5.727   8.929
 4166SOL    HW117345   1.657   5.808   8.883
 4166SOL    HW217346   1.592   5.756   9.009
 4167SOL     OW17347   0.144   6.267   8.025
 4167SOL    HW117348   0.107   6.183   8.052
 4167SOL    HW217349   0.126   6.326   8.098
 4168SOL     OW17350   1.854   7.338   7.798
 4168SOL    HW117351   1.793   7.325   7.870
 4168SOL    HW217352   1.872   7.432   7.797
 4169SOL     OW17353   0.045   7.205   7.649
 4169SOL    HW117354   0.006   7.118   7.637
 4169SOL    HW217355   0.050   7.215   7.744
 4170SOL     OW17356   1.746   6.550   8.079
 4170SOL    HW117357   1.705   6.471   8.113
 4170SOL    HW217358   1.686   6.580   8.011
 4171SOL     OW17359   1.591   6.688   7.886
 4171SOL    HW117360   1.639   6.764   7.918
 4171SOL    HW217361   1.511   6.686   7.940
 4172SOL     OW17362   0.109   6.415   9.054
 4172SOL    HW117363   0.142   6.502   9.075
 4172SOL    HW217364   0.058   6.427   8.974
 4173SOL     OW17365   0.626   6.983   8.184
 4173SOL    HW117366   0.589   6.895   8.194
 4173SOL    HW217367   0.597   7.012   8.098
 4174SOL     OW17368   1.248   6.799   8.854
 4174SOL    HW117369   1.278   6.731   8.793
 4174SOL    HW217370   1.319   6.806   8.918
 4175SOL     OW17371   0.841   5.568   7.992
 4175SOL    HW117372   0.885   5.636   7.942
 4175SOL    HW217373   0.750   5.598   8.000
 4176SOL     OW17374   1.529   6.603   7.627
 4176SOL    HW117375   1.462   6.534   7.624
 4176SOL    HW217376   1.543   6.620   7.720
 4177SOL     OW17377   1.298   7.471   9.076
 4177SOL    HW117378   1.284   7.483   8.983
 4177SOL    HW217379   1.229   7.410   9.103
 4178SOL     OW17380   0.293   5.875   9.227
 4178SOL    HW117381   0.321   5.959   9.191
 4178SOL    HW217382   0.198   5.880   9.228
 4179SOL     OW17383   1.469   6.957   8.370
 4179SOL    HW117384   1.408   6.983   8.439
 4179SOL    HW217385   1.452   6.865   8.355
 4180SOL     OW17386   1.663   7.317   7.988
 4180SOL    HW117387   1.646   7.399   8.035
 4180SOL    HW217388   1.630   7.249   8.047
 4181SOL     OW17389   0.643   6.290   7.769
 4181SOL    HW117390   0.677   6.379   7.773
 4181SOL    HW217391   0.563   6.292   7.821
 4182SOL     OW17392   1.263   5.968   8.345
 4182SOL    HW117393   1.177   5.937   8.375
 4182SOL    HW217394   1.324   5.928   8.407
 4183SOL     OW17395   1.551   7.240   7.689
 4183SOL    HW117396   1.621   7.282   7.740
 4183SOL    HW217397   1.500   7.313   7.654
 4184SOL     OW17398   0.802   6.196   8.875
 4184SOL    HW117399   0.770   6.166   8.960
 4184SOL    HW217400   0.771   6.129   8.813
 4185SOL     OW17401   1.401   6.075   9.100
 4185SOL    HW117402   1.402   6.124   9.183
 4185SOL    HW217403   1.456   5.999   9.117
 4186SOL     OW17404   0.941   6.506   9.059
 4186SOL    HW117405   0.997   6.444   9.013
 4186SOL    HW217406   0.893   6.551   8.989
 4187SOL     OW17407   1.002   5.963   8.648
 4187SOL    HW117408   0.912   5.985   8.672
 4187SOL    HW217409   0.995   5.929   8.558
 4188SOL     OW17410   0.091   6.418   8.255
 4188SOL    HW117411   0.181   6.399   8.282
 4188SOL    HW217412   0.059   6.479   8.322
 4189SOL     OW17413   0.852   5.892   7.643
 4189SOL    HW117414   0.890   5.930   7.564
 4189SOL    HW217415   0.780   5.838   7.612
 4190SOL     OW17416   1.669   6.172   9.290
 4190SOL    HW117417   1.655   6.254   9.243
 4190SOL    HW217418   1.720   6.119   9.229
 4191SOL     OW17419   1.373   6.670   8.050
 4191SOL    HW117420   1.345   6.580   8.037
 4191SOL    HW217421   1.292   6.718   8.070
 4192SOL     OW17422   0.647   5.812   8.355
 4192SOL    HW117423   0.611   5.817   8.443
 4192SOL    HW217424   0.610   5.888   8.310
 4193SOL     OW17425   0.341   7.398   8.346
 4193SOL    HW117426   0.396   7.319   8.351
 4193SOL    HW217427   0.400   7.469   8.369
 4194SOL     OW17428   1.840   6.584   8.342
 4194SOL    HW117429   1.785   6.581   8.264
 4194SOL    HW217430   1.782   6.616   8.411
 4195SOL     OW17431   1.188   7.129   8.946
 4195SOL    HW117432   1.156   7.136   9.036
 4195SOL    HW217433   1.122   7.174   8.893
 4196SOL     OW17434   0.324   6.558   7.712
 4196SOL    HW117435   0.403   6.572   7.659
 4196SOL    HW217436   0.328   6.465   7.736
 4197SOL     OW17437   1.631   6.334   8.196
 4197SOL    HW117438   1.574   6.312   8.270
 4197SOL    HW217439   1.616   6.265   8.132
 4198SOL     OW17440   1.127   7.395   7.658
 4198SOL    HW117441   1.084   7.338   7.722
 4198SOL    HW217442   1.062   7.464   7.641
 4199SOL     OW17443   0.157   5.953   8.905
 4199SOL    HW117444   0.116   6.026   8.858
 4199SOL    HW217445   0.210   5.995   8.973
 4200SOL     OW17446   1.614   6.995   7.567
 4200SOL    HW117447   1.589   7.078   7.607
 4200SOL    HW217448   1.532   6.946   7.558
 4201SOL     OW17449   0.493   7.370   7.751
 4201SOL    HW117450   0.519   7.427   7.823
 4201SOL    HW217451   0.557   7.388   7.682
 4202SOL     OW17452   1.375   5.767   7.933
 4202SOL    HW117453   1.402   5.759   7.841
 4202SOL    HW217454   1.447   5.812   7.976
 4203SOL     OW17455   0.191   7.346   8.780
 4203SOL    HW117456   0.262   7.282   8.776
 4203SOL    HW217457   0.148   7.338   8.695
 4204SOL     OW17458   0.976   7.390   8.436
 4204SOL    HW117459   0.989   7.305   8.478
 4204SOL    HW217460   0.894   7.382   8.389
 4205SOL     OW17461   0.405   6.281   7.916
 4205SOL    HW117462   0.414   6.187   7.928
 4205SOL    HW217463   0.318   6.302   7.950
 4206SOL     OW17464   1.515   5.823   9.161
 4206SOL    HW117465   1.533   5.833   9.254
 4206SOL    HW217466   1.437   5.769   9.157
 4207SOL     OW17467   0.660   5.700   7.572
 4207SOL    HW117468   0.640   5.624   7.626
 4207SOL    HW217469   0.606   5.689   7.493
 4208SOL     OW17470   0.785   5.862   9.178
 4208SOL    HW117471   0.870   5.818   9.183
 4208SOL    HW217472   0.730   5.815   9.241
 4209SOL     OW17473   0.924   7.122   8.542
 4209SOL    HW117474   0.906   7.048   8.484
 4209SOL    HW217475   0.974   7.084   8.614
 4210SOL     OW17476   1.303   6.181   8.868
 4210SOL    HW117477   1.344   6.152   8.949
 4210SOL    HW217478   1.341   6.268   8.852
 4211SOL     OW17479   0.850   6.926   8.347
 4211SOL    HW117480   0.917   6.931   8.279
 4211SOL    HW217481   0.769   6.950   8.302
 4212SOL     OW17482   0.949   6.102   8.306
 4212SOL    HW117483   0.940   6.088   8.211
 4212SOL    HW217484   0.956   6.015   8.343
 4213SOL     OW17485   0.590   5.664   7.994
 4213SOL    HW117486   0.520   5.653   8.059
 4213SOL    HW217487   0.555   5.728   7.932
 4214SOL     OW17488   1.383   6.838   7.533
 4214SOL    HW117489   1.394   6.759   7.585
 4214SOL    HW217490   1.299   6.874   7.562
 4215SOL     OW17491   0.320   5.634   7.628
 4215SOL    HW117492   0.330   5.728   7.641
 4215SOL    HW217493   0.396   5.595   7.669
 4216SOL     OW17494   0.982   5.760   7.849
 4216SOL    HW117495   0.938   5.811   7.781
 4216SOL    HW217496   1.040   5.701   7.802
 4217SOL     OW17497   1.057   6.309   8.906
 4217SOL    HW117498   0.982   6.248   8.902
 4217SOL    HW217499   1.133   6.253   8.893
 4218SOL     OW17500   1.226   7.158   8.161
 4218SOL    HW117501   1.267   7.231   8.115
 4218SOL    HW217502   1.247   7.174   8.253
 4219SOL     OW17503   0.514   6.732   8.180
 4219SOL    HW117504   0.442   6.711   8.239
 4219SOL    HW217505   0.476   6.723   8.092
 4220SOL     OW17506   1.295   7.374   7.993
 4220SOL    HW117507   1.339   7.450   7.955
 4220SOL    HW217508   1.215   7.408   8.031
 4221SOL     OW17509   1.029   6.021   7.458
 4221SOL    HW117510   0.992   6.103   7.424
 4221SOL    HW217511   1.078   6.047   7.536
 4222SOL     OW17512   0.068   6.202   8.800
 4222SOL    HW117513   0.161   6.223   8.792
 4222SOL    HW217514   0.025   6.287   8.807
 4223SOL     OW17515   0.550   5.813   8.615
 4223SOL    HW117516   0.582   5.729   8.648
 4223SOL    HW217517   0.458   5.814   8.639
 4224SOL     OW17518   0.970   6.000   8.029
 4224SOL    HW117519   0.933   6.061   7.966
 4224SOL    HW217520   0.952   5.913   7.994
 4225SOL     OW17521   1.021   5.625   8.199
 4225SOL    HW117522   0.957   5.611   8.130
 4225SOL    HW217523   1.004   5.556   8.263
 4226SOL     OW17524   1.440   6.686   8.322
 4226SOL    HW117525   1.386   6.615   8.356
 4226SOL    HW217526   1.433   6.678   8.227
 4227SOL     OW17527   1.457   6.232   8.401
 4227SOL    HW117528   1.408   6.151   8.391
 4227SOL    HW217529   1.516   6.216   8.475
 4228SOL     OW17530   1.938   6.370   7.797
 4228SOL    HW117531   1.949   6.333   7.885
 4228SOL    HW217532   1.901   6.298   7.745
 4229SOL     OW17533   0.453   7.078   7.539
 4229SOL    HW117534   0.389   7.040   7.598
 4229SOL    HW217535   0.402   7.104   7.462
 4230SOL     OW17536   1.730   6.896   8.007
 4230SOL    HW117537   1.809   6.906   8.060
 4230SOL    HW217538   1.668   6.959   8.045
 4231SOL     OW17539   1.359   6.134   7.532
 4231SOL    HW117540   1.286   6.131   7.594
 4231SOL    HW217541   1.405   6.050   7.545
 4232SOL     OW17542   0.537   5.850   7.781
 4232SOL    HW117543   0.582   5.788   7.723
 4232SOL    HW217544   0.532   5.931   7.730
 4233SOL     OW17545   1.739   6.831   8.961
 4233SOL    HW117546   1.829   6.801   8.946
 4233SOL    HW217547   1.749   6.914   9.008
 4234SOL     OW17548   1.030   6.937   8.747
 4234SOL    HW117549   0.955   6.938   8.807
 4234SOL    HW217550   1.103   6.911   8.803
 4235SOL     OW17551   1.641   7.217   9.127
 4235SOL    HW117552   1.615   7.248   9.040
 4235SOL    HW217553   1.716   7.161   9.111
 4236SOL     OW17554   1.072   6.753   8.552
 4236SOL    HW117555   1.049   6.816   8.620
 4236SOL    HW217556   0.989   6.733   8.508
 4237SOL     OW17557   1.640   6.675   8.518
 4237SOL    HW117558   1.629   6.749   8.578
 4237SOL    HW217559   1.568   6.684   8.456
 4238SOL     OW17560   0.934   5.657   8.820
 4238SOL    HW117561   0.957   5.648   8.728
 4238SOL    HW217562   1.010   5.700   8.860
 4239SOL     OW17563   0.926   6.728   9.224
 4239SOL    HW117564   0.830   6.735   9.225
 4239SOL    HW217565   0.943   6.655   9.164
 4240SOL     OW17566   0.746   6.549   7.806
 4240SOL    HW117567   0.729   6.549   7.900
 4240SOL    HW217568   0.836   6.519   7.798
 4241SOL     OW17569   0.490   6.394   8.689
 4241SOL    HW117570   0.528   6.415   8.774
 4241SOL    HW217571   0.426   6.325   8.707
 4242SOL     OW17572   1.260   5.948   8.732
 4242SOL    HW117573   1.280   6.031   8.774
 4242SOL    HW217574   1.170   5.957   8.701
 4243SOL     OW17575   0.406   6.714   7.932
 4243SOL    HW117576   0.352   6.794   7.933
 4243SOL    HW217577   0.371   6.663   7.859
 4244SOL     OW17578   0.545   6.080   8.297
 4244SOL    HW117579   0.550   6.142   8.224
 4244SOL    HW217580   0.610   6.112   8.360
 4245SOL     OW17581   1.154   7.032   7.884
 4245SOL    HW117582   1.245   7.057   7.897
 4245SOL    HW217583   1.147   6.946   7.927
 4246SOL     OW17584   1.297   7.012   8.591
 4246SOL    HW117585   1.343   7.030   8.673
 4246SOL    HW217586   1.217   6.969   8.617
 4247SOL     OW17587   0.364   7.139   8.787
 4247SOL    HW117588   0.373   7.078   8.714
 4247SOL    HW217589   0.389   7.089   8.864
 4248SOL     OW17590   0.484   6.276   9.112
 4248SOL    HW117591   0.514   6.338   9.045
 4248SOL    HW217592   0.558   6.216   9.125
 4249SOL     OW17593   1.637   6.409   9.157
 4249SOL    HW117594   1.544   6.433   9.149
 4249SOL    HW217595   1.678   6.445   9.078
 4250SOL     OW17596   1.020   5.724   9.212
 4250SOL    HW117597   1.076   5.799   9.194
 4250SOL    HW217598   1.075   5.648   9.191
 4251SOL     OW17599   0.459   5.650   9.215
 4251SOL    HW117600   0.413   5.599   9.149
 4251SOL    HW217601   0.405   5.728   9.228
 4252SOL     OW17602   0.614   6.454   8.455
 4252SOL    HW117603   0.652   6.541   8.463
 4252SOL    HW217604   0.567   6.440   8.538
 4253SOL     OW17605   1.305   6.463   8.412
 4253SOL    HW117606   1.215   6.435   8.395
 4253SOL    HW217607   1.357   6.384   8.401
 4254SOL     OW17608   1.126   6.137   7.696
 4254SOL    HW117609   1.037   6.129   7.729
 4254SOL    HW217610   1.168   6.199   7.755
 4255SOL     OW17611   0.286   5.786   8.708
 4255SOL    HW117612   0.225   5.828   8.768
 4255SOL    HW217613   0.265   5.693   8.712
 4256SOL     OW17614   0.728   6.198   8.462
 4256SOL    HW117615   0.806   6.193   8.407
 4256SOL    HW217616   0.699   6.289   8.455
 4257SOL     OW17617   1.770   6.566   9.343
 4257SOL    HW117618   1.730   6.508   9.279
 4257SOL    HW217619   1.702   6.580   9.408
 4258SOL     OW17620   0.370   5.637   8.158
 4258SOL    HW117621   0.311   5.713   8.156
 4258SOL    HW217622   0.311   5.561   8.154
 4259SOL     OW17623   1.691   6.008   7.821
 4259SOL    HW117624   1.687   5.919   7.856
 4259SOL    HW217625   1.648   6.062   7.887
 4260SOL     OW17626   1.043   6.356   8.400
 4260SOL    HW117627   1.012   6.356   8.490
 4260SOL    HW217628   1.022   6.268   8.367
 4261SOL     OW17629   1.861   7.061   9.058
 4261SOL    HW117630   1.874   7.101   8.972
 4261SOL    HW217631   1.943   7.078   9.104
 4262SOL     OW17632   0.419   6.442   9.337
 4262SOL    HW117633   0.506   6.476   9.360
 4262SOL    HW217634   0.434   6.388   9.260
 4263SOL     OW17635   1.344   6.417   7.504
 4263SOL    HW117636   1.348   6.323   7.522
 4263SOL    HW217637   1.361   6.425   7.411
 4264SOL     OW17638   1.046   6.939   8.145
 4264SOL    HW117639   1.061   6.845   8.137
 4264SOL    HW217640   1.126   6.973   8.184
 4265SOL     OW17641   0.352   6.380   8.357
 4265SOL    HW117642   0.445   6.398   8.366
 4265SOL    HW217643   0.338   6.299   8.405
 4266SOL     OW17644   0.326   6.109   8.464
 4266SOL    HW117645   0.277   6.027   8.455
 4266SOL    HW217646   0.401   6.099   8.405
 4267SOL     OW17647   1.153   5.954   9.136
 4267SOL    HW117648   1.104   6.008   9.198
 4267SOL    HW217649   1.233   6.004   9.118
 4268SOL     OW17650   1.166   5.771   8.925
 4268SOL    HW117651   1.152   5.836   8.994
 4268SOL    HW217652   1.208   5.821   8.854
 4269SOL     OW17653   9.966   6.924   7.637
 4269SOL    HW117654   9.909   6.912   7.560
 4269SOL    HW217655   9.996   6.835   7.657
 4270SOL     OW17656   0.103   7.274   8.425
 4270SOL    HW117657   0.131   7.188   8.394
 4270SOL    HW217658   0.174   7.333   8.398
 4271SOL     OW17659   0.510   7.176   8.353
 4271SOL    HW117660   0.586   7.234   8.357
 4271SOL    HW217661   0.538   7.103   8.298
 4272SOL     OW17662   0.942   6.357   8.654
 4272SOL    HW117663   0.997   6.368   8.731
 4272SOL    HW217664   0.865   6.309   8.686
 4273SOL     OW17665   0.043   6.138   8.528
 4273SOL    HW117666   0.136   6.158   8.512
 4273SOL    HW217667   0.031   6.155   8.621
 4274SOL     OW17668   0.230   6.163   9.114
 4274SOL    HW117669   0.321   6.192   9.104
 4274SOL    HW217670   0.178   6.237   9.083
 4275SOL     OW17671   1.389   6.511   9.092
 4275SOL    HW117672   1.406   6.604   9.079
 4275SOL    HW217673   1.375   6.475   9.004
 4276SOL     OW17674   0.866   6.118   7.803
 4276SOL    HW117675   0.837   6.044   7.751
 4276SOL    HW217676   0.794   6.181   7.797
 4277SOL     OW17677   1.641   6.195   8.606
 4277SOL    HW117678   1.629   6.133   8.678
 4277SOL    HW217679   1.727   6.173   8.570
 4278SOL     OW17680   0.731   6.022   8.673
 4278SOL    HW117681   0.665   5.954   8.660
 4278SOL    HW217682   0.719   6.082   8.600
 4279SOL     OW17683   0.977   7.273   8.828
 4279SOL    HW117684   0.882   7.272   8.837
 4279SOL    HW217685   1.003   7.362   8.851
 4280SOL     OW17686   0.545   6.077   7.623
 4280SOL    HW117687   0.590   6.151   7.665
 4280SOL    HW217688   0.463   6.115   7.590
 4281SOL     OW17689   0.167   6.611   8.724
 4281SOL    HW117690   0.221   6.642   8.797
 4281SOL    HW217691   0.103   6.553   8.764
 4282SOL     OW17692   1.287   6.609   8.645
 4282SOL    HW117693   1.306   6.555   8.568
 4282SOL    HW217694   1.212   6.663   8.618
 4283SOL     OW17695   1.770   7.289   8.629
 4283SOL    HW117696   1.775   7.381   8.602
 4283SOL    HW217697   1.709   7.249   8.567
 4284SOL     OW17698   1.305   7.221   8.411
 4284SOL    HW117699   1.381   7.273   8.437
 4284SOL    HW217700   1.291   7.160   8.483
 4285SOL     OW17701   0.056   6.598   8.470
 4285SOL    HW117702   0.099   6.599   8.556
 4285SOL    HW217703   9.963   6.597   8.490
 4286SOL     OW17704   0.719   7.296   9.135
 4286SOL    HW117705   0.655   7.354   9.177
 4286SOL    HW217706   0.804   7.330   9.163
 4287SOL     OW17707   1.781   5.760   7.958
 4287SOL    HW117708   1.816   5.741   7.871
 4287SOL    HW217709   1.737   5.679   7.985
 4288SOL     OW17710   1.408   7.139   7.909
 4288SOL    HW117711   1.463   7.156   7.832
 4288SOL    HW217712   1.372   7.224   7.933
 4289SOL     OW17713   0.133   7.359   9.291
 4289SOL    HW117714   0.091   7.310   9.361
 4289SOL    HW217715   0.189   7.422   9.336
 4290SOL     OW17716   0.784   6.907   8.890
 4290SOL    HW117717   0.745   6.936   8.973
 4290SOL    HW217718   0.743   6.962   8.824
 4291SOL     OW17719   0.711   7.167   7.561
 4291SOL    HW117720   0.710   7.215   7.478
 4291SOL    HW217721   0.621   7.135   7.571
 4292SOL     OW17722   1.597   7.271   8.857
 4292SOL    HW117723   1.661   7.283   8.787
 4292SOL    HW217724   1.526   7.331   8.835
 4293SOL     OW17725   1.850   5.756   8.390
 4293SOL    HW117726   1.865   5.663   8.372
 4293SOL    HW217727   1.766   5.775   8.349
 4294SOL     OW17728   0.246   5.892   8.168
 4294SOL    HW117729   0.167   5.942   8.148
 4294SOL    HW217730   0.245   5.881   8.263
 4295SOL     OW17731   1.231   7.137   7.392
 4295SOL    HW117732   1.212   7.091   7.474
 4295SOL    HW217733   1.146   7.147   7.350
 4296SOL     OW17734   0.804   6.631   8.854
 4296SOL    HW117735   0.820   6.628   8.759
 4296SOL    HW217736   0.792   6.724   8.872
 4297SOL     OW17737   1.006   6.463   7.775
 4297SOL    HW117738   1.059   6.517   7.716
 4297SOL    HW217739   1.070   6.413   7.826
 4298SOL     OW17740   1.621   6.890   8.707
 4298SOL    HW117741   1.667   6.866   8.788
 4298SOL    HW217742   1.546   6.941   8.737
 4299SOL     OW17743   1.098   6.669   8.117
 4299SOL    HW117744   1.029   6.636   8.175
 4299SOL    HW217745   1.138   6.589   8.081
 4300SOL     OW17746   1.024   5.831   8.398
 4300SOL    HW117747   1.013   5.783   8.315
 4300SOL    HW217748   1.025   5.763   8.465
 4301SOL     OW17749   0.554   7.080   7.942
 4301SOL    HW117750   0.568   7.061   7.849
 4301SOL    HW217751   0.471   7.127   7.945
 4302SOL     OW17752   1.754   5.968   8.825
 4302SOL    HW117753   1.827   6.030   8.817
 4302SOL    HW217754   1.773   5.900   8.761
 4303SOL     OW17755   0.247   6.962   7.687
 4303SOL    HW117756   0.152   6.971   7.680
 4303SOL    HW217757   0.263   6.953   7.781
 4304SOL     OW17758   0.165   6.684   9.136
 4304SOL    HW117759   0.101   6.748   9.104
 4304SOL    HW217760   0.241   6.737   9.162
 4305SOL     OW17761   0.693   5.769   8.926
 4305SOL    HW117762   0.775   5.739   8.885
 4305SOL    HW217763   0.721   5.808   9.009
 4306SOL     OW17764   0.003   5.951   7.501
 4306SOL    HW117765   9.925   6.002   7.523
 4306SOL    HW217766   0.035   5.990   7.419
 4307SOL     OW17767   1.403   6.436   8.826
 4307SOL    HW117768   1.349   6.493   8.771
 4307SOL    HW217769   1.491   6.443   8.789
 4308SOL     OW17770   0.085   5.631   7.766
 4308SOL    HW117771   0.103   5.710   7.817
 4308SOL    HW217772   0.164   5.617   7.714
 4309SOL     OW17773   1.154   6.981   7.606
 4309SOL    HW117774   1.062   6.960   7.586
 4309SOL    HW217775   1.153   7.004   7.699
 4310SOL     OW17776   0.634   6.419   8.923
 4310SOL    HW117777   0.681   6.501   8.912
 4310SOL    HW217778   0.700   6.351   8.906
 4311SOL     OW17779   1.524   7.367   8.499
 4311SOL    HW117780   1.539   7.450   8.455
 4311SOL    HW217781   1.493   7.390   8.586
 4312SOL     OW17782   0.723   6.133   9.132
 4312SOL    HW117783   0.774   6.188   9.192
 4312SOL    HW217784   0.746   6.043   9.157
 4313SOL     OW17785   1.468   6.770   9.045
 4313SOL    HW117786   1.458   6.803   9.134
 4313SOL    HW217787   1.553   6.805   9.016
 4314SOL     OW17788   1.648   6.463   8.699
 4314SOL    HW117789   1.650   6.379   8.653
 4314SOL    HW217790   1.650   6.529   8.629
 4315SOL     OW17791   0.586   6.298   8.129
 4315SOL    HW117792   0.634   6.381   8.121
 4315SOL    HW217793   0.521   6.302   8.059
 4316SOL     OW17794   1.806   6.008   9.102
 4316SOL    HW117795   1.769   5.998   9.014
 4316SOL    HW217796   1.777   5.930   9.149
 4317SOL     OW17797   1.748   6.540   8.943
 4317SOL    HW117798   1.725   6.632   8.951
 4317SOL    HW217799   1.717   6.515   8.857
 4318SOL     OW17800   0.881   6.956   7.573
 4318SOL    HW117801   0.857   6.910   7.654
 4318SOL    HW217802   0.826   7.034   7.573
 4319SOL     OW17803   0.703   7.379   8.358
 4319SOL    HW117804   0.656   7.458   8.332
 4319SOL    HW217805   0.706   7.383   8.454
 4320SOL     OW17806   0.902   6.567   8.287
 4320SOL    HW117807   0.953   6.494   8.321
 4320SOL    HW217808   0.850   6.597   8.362
 4321SOL     OW17809   1.146   6.603   7.572
 4321SOL    HW117810   1.105   6.631   7.490
 4321SOL    HW217811   1.209   6.535   7.545
 4322SOL     OW17812   1.841   7.093   8.229
 4322SOL    HW117813   1.753   7.109   8.192
 4322SOL    HW217814   1.824   7.060   8.317
 4323SOL     OW17815   0.114   6.796   8.148
 4323SOL    HW117816   0.022   6.768   8.152
 4323SOL    HW217817   0.162   6.725   8.191
 4324SOL     OW17818   0.652   7.021   9.110
 4324SOL    HW117819   0.560   7.013   9.084
 4324SOL    HW217820   0.667   7.115   9.118
 4325SOL     OW17821   1.809   5.757   8.662
 4325SOL    HW117822   1.771   5.669   8.673
 4325SOL    HW217823   1.820   5.766   8.568
 4326SOL     OW17824   0.425   6.018   7.975
 4326SOL    HW117825   0.472   5.951   7.926
 4326SOL    HW217826   0.400   5.975   8.057
 4327SOL     OW17827   1.729   6.989   8.463
 4327SOL    HW117828   1.640   6.985   8.427
 4327SOL    HW217829   1.718   6.969   8.556
 4328SOL     OW17830   0.344   6.165   8.743
 4328SOL    HW117831   0.394   6.100   8.793
 4328SOL    HW217832   0.349   6.134   8.652
 4329SOL     OW17833   0.817   7.188   8.153
 4329SOL    HW117834   0.780   7.263   8.199
 4329SOL    HW217835   0.748   7.122   8.156
 4330SOL     OW17836   1.422   5.846   8.533
 4330SOL    HW117837   1.429   5.752   8.548
 4330SOL    HW217838   1.375   5.879   8.610
 4331SOL     OW17839   1.028   5.601   8.557
 4331SOL    HW117840   0.968   5.546   8.506
 4331SOL    HW217841   1.112   5.557   8.550
 4332SOL     OW17842   0.802   6.827   7.799
 4332SOL    HW117843   0.780   6.734   7.792
 4332SOL    HW217844   0.789   6.848   7.892
 4333SOL     OW17845   0.695   7.092   8.703
 4333SOL    HW117846   0.675   7.169   8.757
 4333SOL    HW217847   0.768   7.119   8.648
 4334SOL     OW17848   1.588   5.791   8.312
 4334SOL    HW117849   1.536   5.833   8.379
 4334SOL    HW217850   1.568   5.839   8.231
 4335SOL     OW17851   0.066   6.663   7.666
 4335SOL    HW117852   0.157   6.639   7.679
 4335SOL    HW217853   0.016   6.601   7.719
 4336SOL     OW17854   0.927   7.273   7.845
 4336SOL    HW117855   0.860   7.241   7.783
 4336SOL    HW217856   0.888   7.351   7.884
 4337SOL     OW17857   0.263   6.186   9.396
 4337SOL    HW117858   0.236   6.271   9.429
 4337SOL    HW217859   0.251   6.191   9.301
 4338SOL     OW17860   1.842   6.170   9.502
 4338SOL    HW117861   1.772   6.181   9.438
 4338SOL    HW217862   1.892   6.095   9.470
 4339SOL     OW17863   0.320   7.265   9.784
 4339SOL    HW117864   0.260   7.334   9.812
 4339SOL    HW217865   0.387   7.311   9.733
 4340SOL     OW17866   0.256   7.002   9.823
 4340SOL    HW117867   0.292   7.091   9.818
 4340SOL    HW217868   0.163   7.015   9.838
 4341SOL     OW17869   0.654   6.559   9.425
 4341SOL    HW117870   0.658   6.632   9.363
 4341SOL    HW217871   0.671   6.599   9.510
 4342SOL     OW17872   0.133   6.299   9.784
 4342SOL    HW117873   0.060   6.359   9.800
 4342SOL    HW217874   0.143   6.252   9.867
 4343SOL     OW17875   1.857   7.322   9.626
 4343SOL    HW117876   1.935   7.315   9.680
 4343SOL    HW217877   1.856   7.413   9.597
 4344SOL     OW17878   0.026   7.195   9.493
 4344SOL    HW117879   0.014   7.103   9.467
 4344SOL    HW217880   0.046   7.191   9.587
 4345SOL     OW17881   1.673   6.432   9.885
 4345SOL    HW117882   1.731   6.439   9.961
 4345SOL    HW217883   1.645   6.522   9.869
 4346SOL     OW17884   1.625   6.706   9.817
 4346SOL    HW117885   1.650   6.793   9.786
 4346SOL    HW217886   1.558   6.723   9.883
 4347SOL     OW17887   0.613   6.834   9.884
 4347SOL    HW117888   0.537   6.835   9.942
 4347SOL    HW217889   0.602   6.911   9.829
 4348SOL     OW17890   0.839   5.603   9.800
 4348SOL    HW117891   0.877   5.684   9.768
 4348SOL    HW217892   0.745   5.620   9.802
 4349SOL     OW17893   1.592   6.592   9.554
 4349SOL    HW117894   1.515   6.536   9.564
 4349SOL    HW217895   1.603   6.634   9.639
 4350SOL     OW17896   0.616   6.316   9.595
 4350SOL    HW117897   0.627   6.399   9.549
 4350SOL    HW217898   0.549   6.335   9.662
 4351SOL     OW17899   1.584   7.247   9.633
 4351SOL    HW117900   1.675   7.274   9.637
 4351SOL    HW217901   1.561   7.251   9.541
 4352SOL     OW17902   1.056   6.258   9.755
 4352SOL    HW117903   1.084   6.222   9.839
 4352SOL    HW217904   0.968   6.221   9.741
 4353SOL     OW17905   0.854   5.957   9.488
 4353SOL    HW117906   0.913   6.001   9.426
 4353SOL    HW217907   0.797   5.903   9.433
 4354SOL     OW17908   1.313   6.673   9.784
 4354SOL    HW117909   1.342   6.682   9.875
 4354SOL    HW217910   1.283   6.761   9.760
 4355SOL     OW17911   1.022   7.090   9.831
 4355SOL    HW117912   0.967   7.161   9.799
 4355SOL    HW217913   0.966   7.040   9.890
 4356SOL     OW17914   0.364   7.361   0.264
 4356SOL    HW117915   0.419   7.285   0.243
 4356SOL    HW217916   0.412   7.407   0.333
 4357SOL     OW17917   0.291   6.573   9.546
 4357SOL    HW117918   0.305   6.666   9.528
 4357SOL    HW217919   0.332   6.528   9.473
 4358SOL     OW17920   1.640   6.992   9.392
 4358SOL    HW117921   1.590   7.073   9.392
 4358SOL    HW217922   1.578   6.925   9.363
 4359SOL     OW17923   0.565   7.341   9.636
 4359SOL    HW117924   0.581   7.399   9.710
 4359SOL    HW217925   0.649   7.339   9.589
 4360SOL     OW17926   1.394   5.740   9.750
 4360SOL    HW117927   1.384   5.696   9.666
 4360SOL    HW217928   1.467   5.801   9.737
 4361SOL     OW17929   0.414   6.303   9.793
 4361SOL    HW117930   0.417   6.207   9.797
 4361SOL    HW217931   0.323   6.324   9.776
 4362SOL     OW17932   0.672   5.707   9.376
 4362SOL    HW117933   0.723   5.627   9.385
 4362SOL    HW217934   0.596   5.682   9.324
 4363SOL     OW17935   0.573   5.664   9.792
 4363SOL    HW117936   0.512   5.674   9.865
 4363SOL    HW217937   0.546   5.730   9.729
 4364SOL     OW17938   1.427   6.822   9.318
 4364SOL    HW117939   1.418   6.754   9.384
 4364SOL    HW217940   1.338   6.856   9.308
 4365SOL     OW17941   0.310   5.638   9.526
 4365SOL    HW117942   0.370   5.711   9.544
 4365SOL    HW217943   0.357   5.560   9.557
 4366SOL     OW17944   0.946   5.839   9.718
 4366SOL    HW117945   0.910   5.876   9.637
 4366SOL    HW217946   1.036   5.872   9.721
 4367SOL     OW17947   0.391   6.773   0.055
 4367SOL    HW117948   0.333   6.729   0.118
 4367SOL    HW217949   0.373   6.730   9.972
 4368SOL     OW17950   1.177   7.446   9.817
 4368SOL    HW117951   1.232   7.515   9.780
 4368SOL    HW217952   1.104   7.437   9.755
 4369SOL     OW17953   1.030   6.109   9.332
 4369SOL    HW117954   0.985   6.191   9.312
 4369SOL    HW217955   1.092   6.132   9.401
 4370SOL     OW17956   0.875   6.005   9.933
 4370SOL    HW117957   0.827   6.071   9.883
 4370SOL    HW217958   0.888   5.933   9.871
 4371SOL     OW17959   1.848   6.388   9.677
 4371SOL    HW117960   1.772   6.396   9.735
 4371SOL    HW217961   1.828   6.312   9.623
 4372SOL     OW17962   0.462   6.957   9.430
 4372SOL    HW117963   0.392   6.919   9.483
 4372SOL    HW217964   0.437   6.935   9.340
 4373SOL     OW17965   1.388   6.188   9.350
 4373SOL    HW117966   1.338   6.162   9.427
 4373SOL    HW217967   1.479   6.169   9.373
 4374SOL     OW17968   0.518   5.823   9.574
 4374SOL    HW117969   0.579   5.793   9.508
 4374SOL    HW217970   0.505   5.916   9.556
 4375SOL     OW17971   0.706   6.656   9.677
 4375SOL    HW117972   0.672   6.693   9.759
 4375SOL    HW217973   0.781   6.603   9.704
 4376SOL     OW17974   0.352   6.661   9.809
 4376SOL    HW117975   0.328   6.746   9.771
 4376SOL    HW217976   0.343   6.600   9.736
 4377SOL     OW17977   1.251   6.944   9.763
 4377SOL    HW117978   1.305   7.023   9.771
 4377SOL    HW217979   1.162   6.975   9.774
 4378SOL     OW17980   1.632   6.183   9.772
 4378SOL    HW117981   1.631   6.257   9.832
 4378SOL    HW217982   1.574   6.210   9.701
 4379SOL     OW17983   1.206   6.139   9.553
 4379SOL    HW117984   1.207   6.060   9.607
 4379SOL    HW217985   1.165   6.205   9.608
 4380SOL     OW17986   0.397   5.683   0.004
 4380SOL    HW117987   0.345   5.760   0.027
 4380SOL    HW217988   0.347   5.609   0.038
 4381SOL     OW17989   1.607   5.909   9.699
 4381SOL    HW117990   1.662   5.862   9.762
 4381SOL    HW217991   1.622   6.001   9.720
 4382SOL     OW17992   1.530   5.832   9.434
 4382SOL    HW117993   1.468   5.764   9.463
 4382SOL    HW217994   1.565   5.868   9.515
 4383SOL     OW17995   1.276   6.443   9.337
 4383SOL    HW117996   1.308   6.353   9.340
 4383SOL    HW217997   1.305   6.476   9.252
 4384SOL     OW17998   9.984   6.889   9.517
 4384SOL    HW117999   9.931   6.870   9.439
 4384SOL    HW218000   9.992   6.805   9.562
 4385SOL     OW18001   0.808   6.145   9.695
 4385SOL    HW118002   0.813   6.083   9.622
 4385SOL    HW218003   0.745   6.211   9.667
 4386SOL     OW18004   0.507   6.084   9.487
 4386SOL    HW118005   0.554   6.160   9.521
 4386SOL    HW218006   0.425   6.120   9.453
 4387SOL     OW18007   1.363   6.455   9.620
 4387SOL    HW118008   1.329   6.527   9.674
 4387SOL    HW218009   1.307   6.454   9.543
 4388SOL     OW18010   1.736   5.756   9.897
 4388SOL    HW118011   1.808   5.811   9.927
 4388SOL    HW218012   1.673   5.757   9.969
 4389SOL     OW18013   1.356   7.213   9.780
 4389SOL    HW118014   1.443   7.219   9.740
 4389SOL    HW218015   1.297   7.255   9.717
 4390SOL     OW18016   0.938   6.506   9.685
 4390SOL    HW118017   0.971   6.526   9.597
 4390SOL    HW218018   0.988   6.429   9.712
 4391SOL     OW18019   1.510   7.234   9.364
 4391SOL    HW118020   1.422   7.266   9.347
 4391SOL    HW218021   1.555   7.240   9.280
 4392SOL     OW18022   0.574   7.039   9.674
 4392SOL    HW118023   0.533   7.016   9.591
 4392SOL    HW218024   0.550   7.131   9.688
 4393SOL     OW18025   0.263   6.861   9.591
 4393SOL    HW118026   0.174   6.874   9.561
 4393SOL    HW218027   0.269   6.913   9.672
 4394SOL     OW18028   0.025   5.982   9.245
 4394SOL    HW118029   9.942   5.980   9.197
 4394SOL    HW218030   0.072   6.058   9.209
 4395SOL     OW18031   0.047   5.736   9.599
 4395SOL    HW118032   0.137   5.735   9.566
 4395SOL    HW218033   0.050   5.680   9.677
 4396SOL     OW18034   1.199   5.943   9.750
 4396SOL    HW118035   1.266   5.877   9.768
 4396SOL    HW218036   1.189   5.990   9.832
 4397SOL     OW18037   1.035   6.550   9.429
 4397SOL    HW118038   1.008   6.620   9.369
 4397SOL    HW218039   1.116   6.516   9.390
 4398SOL     OW18040   0.039   6.750   9.892
 4398SOL    HW118041   9.951   6.732   9.925
 4398SOL    HW218042   0.090   6.772   9.970
 4399SOL     OW18043   0.439   6.015   9.825
 4399SOL    HW118044   0.528   5.985   9.805
 4399SOL    HW218045   0.445   6.052   9.913
 4400SOL     OW18046   0.790   6.900   9.580
 4400SOL    HW118047   0.773   6.811   9.610
 4400SOL    HW218048   0.721   6.953   9.622
 4401SOL     OW18049   1.372   5.611   9.506
 4401SOL    HW118050   1.409   5.554   9.438
 4401SOL    HW218051   1.291   5.569   9.533
 4402SOL     OW18052   0.037   6.651   9.636
 4402SOL    HW118053   0.118   6.605   9.618
 4402SOL    HW218054   0.043   6.675   9.729
 4403SOL     OW18055   0.250   8.170   0.130
 4403SOL    HW118056   0.187   8.130   0.189
 4403SOL    HW218057   0.220   8.145   0.043
 4404SOL     OW18058   0.172   7.734   0.997
 4404SOL    HW118059   0.208   7.707   1.082
 4404SOL    HW218060   0.083   7.699   0.997
 4405SOL     OW18061   0.013   7.881   0.678
 4405SOL    HW118062   9.977   7.894   0.766
 4405SOL    HW218063   9.937   7.866   0.623
 4406SOL     OW18064   0.589   8.766   1.222
 4406SOL    HW118065   0.551   8.808   1.145
 4406SOL    HW218066   0.527   8.782   1.292
 4407SOL     OW18067   1.577   8.966   0.707
 4407SOL    HW118068   1.529   8.956   0.789
 4407SOL    HW218069   1.510   8.981   0.641
 4408SOL     OW18070   1.170   8.138   0.672
 4408SOL    HW118071   1.213   8.222   0.659
 4408SOL    HW218072   1.112   8.152   0.747
 4409SOL     OW18073   1.703   7.995   0.158
 4409SOL    HW118074   1.621   8.021   0.115
 4409SOL    HW218075   1.677   7.923   0.216
 4410SOL     OW18076   0.719   8.580   1.044
 4410SOL    HW118077   0.675   8.608   1.125
 4410SOL    HW218078   0.754   8.661   1.007
 4411SOL     OW18079   0.888   8.162   1.875
 4411SOL    HW118080   0.858   8.218   1.946
 4411SOL    HW218081   0.919   8.222   1.807
 4412SOL     OW18082   0.679   8.429   0.666
 4412SOL    HW118083   0.752   8.437   0.727
 4412SOL    HW218084   0.613   8.490   0.698
 4413SOL     OW18085   1.444   8.956   1.385
 4413SOL    HW118086   1.504   9.029   1.395
 4413SOL    HW218087   1.374   8.973   1.448
 4414SOL     OW18088   0.487   7.822   1.441
 4414SOL    HW118089   0.541   7.748   1.469
 4414SOL    HW218090   0.442   7.849   1.521
 4415SOL     OW18091   1.564   7.876   0.731
 4415SOL    HW118092   1.479   7.853   0.691
 4415SOL    HW218093   1.566   7.972   0.729
 4416SOL     OW18094   0.280   9.067   0.444
 4416SOL    HW118095   0.223   9.140   0.466
 4416SOL    HW218096   0.363   9.108   0.418
 4417SOL     OW18097   1.101   8.664   1.769
 4417SOL    HW118098   1.044   8.727   1.813
 4417SOL    HW218099   1.050   8.636   1.693
 4418SOL     OW18100   0.121   8.887   0.567
 4418SOL    HW118101   0.177   8.957   0.535
 4418SOL    HW218102   0.151   8.871   0.656
 4419SOL     OW18103   0.235   8.568   0.862
 4419SOL    HW118104   0.236   8.506   0.936
 4419SOL    HW218105   0.199   8.648   0.899
 4420SOL     OW18106   0.597   8.406   0.169
 4420SOL    HW118107   0.578   8.481   0.114
 4420SOL    HW218108   0.649   8.442   0.241
 4421SOL     OW18109   1.705   7.599   1.478
 4421SOL    HW118110   1.731   7.652   1.402
 4421SOL    HW218111   1.622   7.638   1.507
 4422SOL     OW18112   0.145   8.103   0.572
 4422SOL    HW118113   0.112   8.022   0.611
 4422SOL    HW218114   0.127   8.171   0.638
 4423SOL     OW18115   1.867   9.160   0.304
 4423SOL    HW118116   1.937   9.133   0.362
 4423SOL    HW218117   1.877   9.255   0.296
 4424SOL     OW18118   0.155   8.960   0.135
 4424SOL    HW118119   0.081   8.968   0.195
 4424SOL    HW218120   0.197   9.046   0.137
 4425SOL     OW18121   1.655   8.396   0.642
 4425SOL    HW118122   1.737   8.391   0.594
 4425SOL    HW218123   1.604   8.463   0.595
 4426SOL     OW18124   1.751   8.601   0.385
 4426SOL    HW118125   1.805   8.530   0.419
 4426SOL    HW218126   1.726   8.652   0.463
 4427SOL     OW18127   0.141   8.266   1.598
 4427SOL    HW118128   0.230   8.236   1.617
 4427SOL    HW218129   0.132   8.346   1.649
 4428SOL     OW18130   0.577   8.855   0.782
 4428SOL    HW118131   0.545   8.766   0.764
 4428SOL    HW218132   0.583   8.896   0.696
 4429SOL     OW18133   1.273   8.672   1.403
 4429SOL    HW118134   1.298   8.603   1.341
 4429SOL    HW218135   1.338   8.665   1.473
 4430SOL     OW18136   0.179   8.352   1.256
 4430SOL    HW118137   0.271   8.333   1.274
 4430SOL    HW218138   0.168   8.329   1.164
 4431SOL     OW18139   1.586   8.367   0.329
 4431SOL    HW118140   1.493   8.348   0.317
 4431SOL    HW218141   1.591   8.463   0.322
 4432SOL     OW18142   1.207   9.267   1.732
 4432SOL    HW118143   1.213   9.351   1.685
 4432SOL    HW218144   1.232   9.202   1.667
 4433SOL     OW18145   1.448   8.874   0.939
 4433SOL    HW118146   1.387   8.900   1.008
 4433SOL    HW218147   1.424   8.784   0.918
 4434SOL     OW18148   1.636   9.240   0.569
 4434SOL    HW118149   1.620   9.195   0.486
 4434SOL    HW218150   1.633   9.172   0.635
 4435SOL     OW18151   0.615   8.143   0.285
 4435SOL    HW118152   0.617   8.232   0.250
 4435SOL    HW218153   0.547   8.146   0.352
 4436SOL     OW18154   1.283   7.845   0.938
 4436SOL    HW118155   1.187   7.839   0.945
 4436SOL    HW218156   1.315   7.776   0.996
 4437SOL     OW18157   1.591   9.117   0.316
 4437SOL    HW118158   1.686   9.125   0.306
 4437SOL    HW218159   1.559   9.105   0.227
 4438SOL     OW18160   0.818   8.056   1.467
 4438SOL    HW118161   0.791   8.021   1.551
 4438SOL    HW218162   0.783   7.994   1.403
 4439SOL     OW18163   1.377   7.932   1.637
 4439SOL    HW118164   1.377   7.981   1.719
 4439SOL    HW218165   1.425   7.852   1.658
 4440SOL     OW18166   0.971   8.325   1.665
 4440SOL    HW118167   1.008   8.292   1.583
 4440SOL    HW218168   0.926   8.406   1.640
 4441SOL     OW18169   1.007   7.837   1.259
 4441SOL    HW118170   0.916   7.860   1.278
 4441SOL    HW218171   1.006   7.812   1.167
 4442SOL     OW18172   1.104   8.113   0.401
 4442SOL    HW118173   1.117   8.114   0.496
 4442SOL    HW218174   1.016   8.077   0.390
 4443SOL     OW18175   0.091   8.292   0.766
 4443SOL    HW118176   0.162   8.300   0.830
 4443SOL    HW218177   0.095   8.374   0.717
 4444SOL     OW18178   0.145   9.235   1.584
 4444SOL    HW118179   0.155   9.213   1.676
 4444SOL    HW218180   0.109   9.324   1.584
 4445SOL     OW18181   0.869   7.789   0.196
 4445SOL    HW118182   0.862   7.849   0.121
 4445SOL    HW218183   0.888   7.704   0.158
 4446SOL     OW18184   1.677   8.021   1.858
 4446SOL    HW118185   1.668   8.095   1.799
 4446SOL    HW218186   1.711   7.950   1.803
 4447SOL     OW18187   1.427   8.610   0.571
 4447SOL    HW118188   1.507   8.662   0.578
 4447SOL    HW218189   1.367   8.665   0.520
 4448SOL     OW18190   0.573   7.677   0.938
 4448SOL    HW118191   0.667   7.664   0.930
 4448SOL    HW218192   0.558   7.765   0.904
 4449SOL     OW18193   0.997   8.893   0.461
 4449SOL    HW118194   0.982   8.974   0.411
 4449SOL    HW218195   0.960   8.911   0.547
 4450SOL     OW18196   0.375   9.249   0.908
 4450SOL    HW118197   0.422   9.167   0.926
 4450SOL    HW218198   0.437   9.318   0.930
 4451SOL     OW18199   1.779   8.428   0.892
 4451SOL    HW118200   1.731   8.430   0.809
 4451SOL    HW218201   1.728   8.486   0.949
 4452SOL     OW18202   1.212   9.019   1.529
 4452SOL    HW118203   1.151   9.002   1.600
 4452SOL    HW218204   1.159   9.012   1.449
 4453SOL     OW18205   0.333   8.405   0.255
 4453SOL    HW118206   0.426   8.404   0.230
 4453SOL    HW218207   0.301   8.319   0.228
 4454SOL     OW18208   1.540   8.155   0.709
 4454SOL    HW118209   1.511   8.151   0.800
 4454SOL    HW218210   1.590   8.237   0.703
 4455SOL     OW18211   1.101   9.215   0.156
 4455SOL    HW118212   1.049   9.185   0.230
 4455SOL    HW218213   1.131   9.135   0.113
 4456SOL     OW18214   0.166   7.808   1.546
 4456SOL    HW118215   0.150   7.887   1.495
 4456SOL    HW218216   0.205   7.840   1.628
 4457SOL     OW18217   1.619   8.824   0.069
 4457SOL    HW118218   1.580   8.912   0.068
 4457SOL    HW218219   1.545   8.765   0.083
 4458SOL     OW18220   0.502   9.211   0.355
 4458SOL    HW118221   0.517   9.276   0.423
 4458SOL    HW218222   0.552   9.244   0.279
 4459SOL     OW18223   1.471   7.547   0.468
 4459SOL    HW118224   1.391   7.597   0.452
 4459SOL    HW218225   1.540   7.612   0.468
 4460SOL     OW18226   0.936   9.147   0.908
 4460SOL    HW118227   0.948   9.177   0.998
 4460SOL    HW218228   1.011   9.091   0.891
 4461SOL     OW18229   0.407   8.130   0.469
 4461SOL    HW118230   0.421   8.037   0.487
 4461SOL    HW218231   0.317   8.147   0.497
 4462SOL     OW18232   1.499   7.684   1.704
 4462SOL    HW118233   1.508   7.676   1.799
 4462SOL    HW218234   1.422   7.632   1.683
 4463SOL     OW18235   0.650   7.515   0.146
 4463SOL    HW118236   0.741   7.532   0.125
 4463SOL    HW218237   0.603   7.528   0.064
 4464SOL     OW18238   0.725   7.659   1.800
 4464SOL    HW118239   0.766   7.575   1.821
 4464SOL    HW218240   0.669   7.678   1.876
 4465SOL     OW18241   1.436   8.031   1.384
 4465SOL    HW118242   1.421   8.001   1.473
 4465SOL    HW218243   1.415   8.125   1.386
 4466SOL     OW18244   0.799   8.839   0.963
 4466SOL    HW118245   0.885   8.838   0.920
 4466SOL    HW218246   0.737   8.854   0.891
 4467SOL     OW18247   0.918   7.979   0.887
 4467SOL    HW118248   0.908   7.960   0.794
 4467SOL    HW218249   0.940   7.895   0.927
 4468SOL     OW18250   0.522   7.461   0.475
 4468SOL    HW118251   0.471   7.477   0.554
 4468SOL    HW218252   0.610   7.492   0.497
 4469SOL     OW18253   1.401   8.662   0.088
 4469SOL    HW118254   1.381   8.609   0.011
 4469SOL    HW218255   1.316   8.691   0.120
 4470SOL     OW18256   0.960   7.681   0.450
 4470SOL    HW118257   0.901   7.614   0.483
 4470SOL    HW218258   0.918   7.713   0.370
 4471SOL     OW18259   1.066   8.161   1.445
 4471SOL    HW118260   0.975   8.130   1.448
 4471SOL    HW218261   1.116   8.091   1.486
 4472SOL     OW18262   1.217   9.043   0.808
 4472SOL    HW118263   1.229   9.104   0.735
 4472SOL    HW218264   1.295   9.054   0.862
 4473SOL     OW18265   0.469   8.606   0.721
 4473SOL    HW118266   0.394   8.591   0.777
 4473SOL    HW218267   0.435   8.597   0.632
 4474SOL     OW18268   1.257   9.243   0.606
 4474SOL    HW118269   1.307   9.318   0.573
 4474SOL    HW218270   1.178   9.281   0.643
 4475SOL     OW18271   1.136   7.987   9.975
 4475SOL    HW118272   1.041   7.976   9.984
 4475SOL    HW218273   1.169   7.971   0.064
 4476SOL     OW18274   0.130   8.047   1.398
 4476SOL    HW118275   0.218   8.046   1.362
 4476SOL    HW218276   0.131   8.117   1.463
 4477SOL     OW18277   0.923   7.910   0.620
 4477SOL    HW118278   0.880   7.957   0.549
 4477SOL    HW218279   0.934   7.821   0.586
 4478SOL     OW18280   1.394   8.613   0.864
 4478SOL    HW118281   1.303   8.587   0.877
 4478SOL    HW218282   1.407   8.609   0.769
 4479SOL     OW18283   1.454   8.062   0.958
 4479SOL    HW118284   1.392   7.990   0.949
 4479SOL    HW218285   1.507   8.040   1.035
 4480SOL     OW18286   0.500   8.881   0.181
 4480SOL    HW118287   0.433   8.867   0.248
 4480SOL    HW218288   0.491   8.807   0.121
 4481SOL     OW18289   1.678   8.719   0.623
 4481SOL    HW118290   1.766   8.702   0.657
 4481SOL    HW218291   1.655   8.806   0.657
 4482SOL     OW18292   1.445   8.050   0.071
 4482SOL    HW118293   1.384   8.011   0.134
 4482SOL    HW218294   1.409   8.137   0.053
 4483SOL     OW18295   0.494   7.716   0.293
 4483SOL    HW118296   0.555   7.649   0.264
 4483SOL    HW218297   0.513   7.792   0.238
 4484SOL     OW18298   1.748   8.672   1.574
 4484SOL    HW118299   1.827   8.623   1.548
 4484SOL    HW218300   1.780   8.760   1.593
 4485SOL     OW18301   1.081   8.840   1.309
 4485SOL    HW118302   0.999   8.808   1.347
 4485SOL    HW218303   1.149   8.789   1.353
 4486SOL     OW18304   1.609   9.030   1.661
 4486SOL    HW118305   1.602   9.085   1.583
 4486SOL    HW218306   1.696   8.991   1.655
 4487SOL     OW18307   1.126   8.665   1.092
 4487SOL    HW118308   1.104   8.726   1.162
 4487SOL    HW218309   1.100   8.711   1.012
 4488SOL     OW18310   1.599   8.564   1.056
 4488SOL    HW118311   1.589   8.627   1.127
 4488SOL    HW218312   1.524   8.581   0.998
 4489SOL     OW18313   0.899   7.531   1.359
 4489SOL    HW118314   0.877   7.529   1.266
 4489SOL    HW218315   0.976   7.588   1.364
 4490SOL     OW18316   0.729   8.490   0.397
 4490SOL    HW118317   0.705   8.468   0.487
 4490SOL    HW218318   0.811   8.443   0.381
 4491SOL     OW18319   0.444   8.275   1.284
 4491SOL    HW118320   0.505   8.281   1.357
 4491SOL    HW218321   0.422   8.182   1.278
 4492SOL     OW18322   1.273   7.810   1.315
 4492SOL    HW118323   1.319   7.893   1.333
 4492SOL    HW218324   1.183   7.836   1.298
 4493SOL     OW18325   0.352   8.576   0.474
 4493SOL    HW118326   0.336   8.653   0.419
 4493SOL    HW218327   0.361   8.504   0.412
 4494SOL     OW18328   0.530   7.950   0.865
 4494SOL    HW118329   0.543   8.009   0.791
 4494SOL    HW218330   0.590   7.983   0.933
 4495SOL     OW18331   1.254   8.794   0.436
 4495SOL    HW118332   1.305   8.873   0.455
 4495SOL    HW218333   1.164   8.818   0.458
 4496SOL     OW18334   1.293   8.948   1.152
 4496SOL    HW118335   1.352   8.955   1.227
 4496SOL    HW218336   1.209   8.921   1.190
 4497SOL     OW18337   1.524   8.080   0.439
 4497SOL    HW118338   1.519   8.109   0.530
 4497SOL    HW218339   1.465   8.138   0.392
 4498SOL     OW18340   0.403   8.210   1.655
 4498SOL    HW118341   0.481   8.206   1.599
 4498SOL    HW218342   0.386   8.119   1.678
 4499SOL     OW18343   1.650   8.234   1.678
 4499SOL    HW118344   1.565   8.278   1.673
 4499SOL    HW218345   1.693   8.254   1.595
 4500SOL     OW18346   1.054   7.527   1.880
 4500SOL    HW118347   1.030   7.617   1.861
 4500SOL    HW218348   1.105   7.498   1.804
 4501SOL     OW18349   0.578   8.323   1.044
 4501SOL    HW118350   0.624   8.407   1.041
 4501SOL    HW218351   0.538   8.320   1.131
 4502SOL     OW18352   1.312   8.292   0.997
 4502SOL    HW118353   1.221   8.280   0.970
 4502SOL    HW218354   1.355   8.209   0.976
 4503SOL     OW18355   1.245   7.933   0.234
 4503SOL    HW118356   1.249   7.853   0.287
 4503SOL    HW218357   1.199   7.996   0.289
 4504SOL     OW18358   0.241   7.660   1.252
 4504SOL    HW118359   0.254   7.695   1.340
 4504SOL    HW218360   0.231   7.566   1.264
 4505SOL     OW18361   0.131   8.813   1.384
 4505SOL    HW118362   0.153   8.720   1.390
 4505SOL    HW218363   0.066   8.827   1.454
 4506SOL     OW18364   0.697   8.063   1.051
 4506SOL    HW118365   0.776   8.059   0.996
 4506SOL    HW218366   0.669   8.154   1.045
 4507SOL     OW18367   1.772   8.427   1.844
 4507SOL    HW118368   1.734   8.354   1.796
 4507SOL    HW218369   1.723   8.504   1.815
 4508SOL     OW18370   0.349   7.496   0.687
 4508SOL    HW118371   0.329   7.589   0.701
 4508SOL    HW218372   0.268   7.459   0.652
 4509SOL     OW18373   1.582   7.831   0.343
 4509SOL    HW118374   1.637   7.788   0.409
 4509SOL    HW218375   1.554   7.913   0.384
 4510SOL     OW18376   1.046   8.215   0.935
 4510SOL    HW118377   1.032   8.235   1.028
 4510SOL    HW218378   0.998   8.133   0.921
 4511SOL     OW18379   1.011   8.991   1.716
 4511SOL    HW118380   0.945   9.057   1.694
 4511SOL    HW218381   0.961   8.919   1.754
 4512SOL     OW18382   1.860   8.924   1.592
 4512SOL    HW118383   1.874   8.968   1.508
 4512SOL    HW218384   1.941   8.940   1.641
 4513SOL     OW18385   1.458   7.690   0.143
 4513SOL    HW118386   1.416   7.763   0.098
 4513SOL    HW218387   1.503   7.730   0.217
 4514SOL     OW18388   1.304   8.288   9.988
 4514SOL    HW118389   1.256   8.237   9.923
 4514SOL    HW218390   1.336   8.364   9.939
 4515SOL     OW18391   1.063   8.815   0.865
 4515SOL    HW118392   1.088   8.742   0.808
 4515SOL    HW218393   1.117   8.888   0.835
 4516SOL     OW18394   0.293   8.271   0.970
 4516SOL    HW118395   0.386   8.293   0.974
 4516SOL    HW218396   0.290   8.176   0.978
 4517SOL     OW18397   0.294   7.980   1.003
 4517SOL    HW118398   0.250   7.896   0.996
 4517SOL    HW218399   0.372   7.970   0.948
 4518SOL     OW18400   1.137   7.787   1.714
 4518SOL    HW118401   1.081   7.832   1.778
 4518SOL    HW218402   1.202   7.853   1.689
 4519SOL     OW18403   1.165   7.623   1.493
 4519SOL    HW118404   1.139   7.680   1.565
 4519SOL    HW218405   1.203   7.681   1.428
 4520SOL     OW18406   9.921   8.704   0.148
 4520SOL    HW118407   9.919   8.781   0.205
 4520SOL    HW218408   9.964   8.637   0.201
 4521SOL     OW18409   0.481   8.962   1.022
 4521SOL    HW118410   0.544   9.034   1.022
 4521SOL    HW218411   0.496   8.916   0.940
 4522SOL     OW18412   1.001   8.270   1.196
 4522SOL    HW118413   1.037   8.228   1.274
 4522SOL    HW218414   0.945   8.339   1.229
 4523SOL     OW18415   0.042   8.051   1.116
 4523SOL    HW118416   0.131   8.035   1.085
 4523SOL    HW218417   0.048   8.045   1.211
 4524SOL     OW18418   1.422   8.389   1.654
 4524SOL    HW118419   1.430   8.484   1.646
 4524SOL    HW218420   1.394   8.359   1.567
 4525SOL     OW18421   0.850   8.012   0.366
 4525SOL    HW118422   0.847   7.935   0.310
 4525SOL    HW218423   0.772   8.062   0.343
 4526SOL     OW18424   1.634   8.032   1.174
 4526SOL    HW118425   1.578   8.013   1.249
 4526SOL    HW218426   1.648   8.126   1.178
 4527SOL     OW18427   0.312   8.935   1.779
 4527SOL    HW118428   0.247   9.000   1.804
 4527SOL    HW218429   0.366   8.979   1.713
 4528SOL     OW18430   0.731   7.890   1.268
 4528SOL    HW118431   0.647   7.849   1.291
 4528SOL    HW218432   0.711   7.945   1.192
 4529SOL     OW18433   0.466   7.962   0.130
 4529SOL    HW118434   0.541   8.009   0.166
 4529SOL    HW218435   0.394   8.025   0.134
 4530SOL     OW18436   0.214   8.562   1.440
 4530SOL    HW118437   0.190   8.531   1.528
 4530SOL    HW218438   0.199   8.487   1.383
 4531SOL     OW18439   1.293   8.476   1.198
 4531SOL    HW118440   1.300   8.413   1.126
 4531SOL    HW218441   1.231   8.542   1.166
 4532SOL     OW18442   1.333   8.247   0.294
 4532SOL    HW118443   1.253   8.218   0.337
 4532SOL    HW218444   1.304   8.280   0.209
 4533SOL     OW18445   1.763   9.179   1.165
 4533SOL    HW118446   1.824   9.201   1.095
 4533SOL    HW218447   1.735   9.089   1.144
 4534SOL     OW18448   1.292   9.281   1.145
 4534SOL    HW118449   1.328   9.210   1.091
 4534SOL    HW218450   1.204   9.251   1.167
 4535SOL     OW18451   0.919   7.541   0.082
 4535SOL    HW118452   0.904   7.513   9.992
 4535SOL    HW218453   0.987   7.481   0.115
 4536SOL     OW18454   1.739   7.681   0.507
 4536SOL    HW118455   1.810   7.743   0.491
 4536SOL    HW218456   1.778   7.615   0.565
 4537SOL     OW18457   1.398   9.024   0.500
 4537SOL    HW118458   1.455   9.059   0.431
 4537SOL    HW218459   1.345   9.099   0.527
 4538SOL     OW18460   0.151   9.155   1.844
 4538SOL    HW118461   0.091   9.125   1.912
 4538SOL    HW218462   0.214   9.211   1.891
 4539SOL     OW18463   1.312   8.370   0.639
 4539SOL    HW118464   1.393   8.328   0.669
 4539SOL    HW218465   1.340   8.453   0.601
 4540SOL     OW18466   0.831   8.751   1.386
 4540SOL    HW118467   0.848   8.709   1.470
 4540SOL    HW218468   0.745   8.716   1.360
 4541SOL     OW18469   0.719   9.046   0.168
 4541SOL    HW118470   0.677   9.126   0.134
 4541SOL    HW218471   0.647   8.984   0.179
 4542SOL     OW18472   1.625   9.161   1.411
 4542SOL    HW118473   1.674   9.168   1.329
 4542SOL    HW218474   1.622   9.251   1.445
 4543SOL     OW18475   0.258   7.752   0.729
 4543SOL    HW118476   0.178   7.792   0.697
 4543SOL    HW218477   0.245   7.744   0.824
 4544SOL     OW18478   1.223   8.999   0.024
 4544SOL    HW118479   1.197   8.913   0.057
 4544SOL    HW218480   1.230   8.987   9.929
 4545SOL     OW18481   0.861   8.462   1.333
 4545SOL    HW118482   0.895   8.551   1.324
 4545SOL    HW218483   0.819   8.461   1.419
 4546SOL     OW18484   0.957   8.356   0.337
 4546SOL    HW118485   1.004   8.388   0.260
 4546SOL    HW218486   1.003   8.275   0.361
 4547SOL     OW18487   1.483   9.081   0.053
 4547SOL    HW118488   1.393   9.048   0.049
 4547SOL    HW218489   1.506   9.100   9.963
 4548SOL     OW18490   0.412   8.850   1.409
 4548SOL    HW118491   0.417   8.933   1.455
 4548SOL    HW218492   0.325   8.816   1.429
 4549SOL     OW18493   1.582   8.743   1.268
 4549SOL    HW118494   1.660   8.741   1.324
 4549SOL    HW218495   1.523   8.804   1.313
 4550SOL     OW18496   1.127   8.558   0.766
 4550SOL    HW118497   1.041   8.526   0.793
 4550SOL    HW218498   1.164   8.488   0.713
 4551SOL     OW18499   1.037   7.739   1.002
 4551SOL    HW118500   0.958   7.701   0.963
 4551SOL    HW218501   1.084   7.664   1.039
 4552SOL     OW18502   0.615   8.969   0.524
 4552SOL    HW118503   0.650   8.900   0.469
 4552SOL    HW218504   0.576   9.031   0.462
 4553SOL     OW18505   0.270   8.787   0.316
 4553SOL    HW118506   0.229   8.831   0.243
 4553SOL    HW218507   0.235   8.830   0.394
 4554SOL     OW18508   0.137   8.523   1.710
 4554SOL    HW118509   0.059   8.579   1.708
 4554SOL    HW218510   0.197   8.568   1.770
 4555SOL     OW18511   0.673   7.623   1.523
 4555SOL    HW118512   0.756   7.610   1.476
 4555SOL    HW218513   0.700   7.650   1.612
 4556SOL     OW18514   0.047   7.839   9.986
 4556SOL    HW118515   9.961   7.869   0.015
 4556SOL    HW218516   0.049   7.861   9.893
 4557SOL     OW18517   1.404   8.308   1.388
 4557SOL    HW118518   1.338   8.357   1.340
 4557SOL    HW218519   1.487   8.331   1.346
 4558SOL     OW18520   0.119   7.490   0.212
 4558SOL    HW118521   0.149   7.553   0.277
 4558SOL    HW218522   0.183   7.419   0.215
 4559SOL     OW18523   1.149   8.760   0.154
 4559SOL    HW118524   1.058   8.785   0.141
 4559SOL    HW218525   1.162   8.766   0.249
 4560SOL     OW18526   0.622   8.248   1.489
 4560SOL    HW118527   0.664   8.330   1.516
 4560SOL    HW218528   0.694   8.186   1.476
 4561SOL     OW18529   1.505   9.201   0.939
 4561SOL    HW118530   1.516   9.287   0.899
 4561SOL    HW218531   1.563   9.202   1.015
 4562SOL     OW18532   0.745   7.978   1.714
 4562SOL    HW118533   0.779   8.042   1.777
 4562SOL    HW218534   0.699   7.914   1.769
 4563SOL     OW18535   1.473   8.659   1.608
 4563SOL    HW118536   1.450   8.746   1.641
 4563SOL    HW218537   1.567   8.663   1.594
 4564SOL     OW18538   0.410   9.093   1.532
 4564SOL    HW118539   0.342   9.160   1.542
 4564SOL    HW218540   0.492   9.141   1.541
 4565SOL     OW18541   1.601   8.317   1.181
 4565SOL    HW118542   1.516   8.302   1.139
 4565SOL    HW218543   1.631   8.400   1.144
 4566SOL     OW18544   1.239   7.714   0.447
 4566SOL    HW118545   1.145   7.698   0.447
 4566SOL    HW218546   1.253   7.773   0.521
 4567SOL     OW18547   0.576   8.165   0.692
 4567SOL    HW118548   0.616   8.251   0.688
 4567SOL    HW218549   0.521   8.160   0.614
 4568SOL     OW18550   1.759   7.791   1.708
 4568SOL    HW118551   1.797   7.773   1.622
 4568SOL    HW218552   1.672   7.752   1.705
 4569SOL     OW18553   1.763   8.321   1.436
 4569SOL    HW118554   1.828   8.391   1.443
 4569SOL    HW218555   1.725   8.333   1.349
 4570SOL     OW18556   0.899   8.855   0.061
 4570SOL    HW118557   0.832   8.794   0.029
 4570SOL    HW218558   0.850   8.923   0.106
 4571SOL     OW18559   0.664   9.167   0.998
 4571SOL    HW118560   0.641   9.260   0.991
 4571SOL    HW218561   0.753   9.161   0.964
 4572SOL     OW18562   0.887   8.444   0.858
 4572SOL    HW118563   0.930   8.367   0.893
 4572SOL    HW218564   0.838   8.480   0.932
 4573SOL     OW18565   1.105   8.437   0.122
 4573SOL    HW118566   1.101   8.527   0.090
 4573SOL    HW218567   1.168   8.394   0.063
 4574SOL     OW18568   1.821   8.944   0.849
 4574SOL    HW118569   1.752   8.962   0.785
 4574SOL    HW218570   1.775   8.944   0.933
 4575SOL     OW18571   0.334   8.678   1.873
 4575SOL    HW118572   0.322   8.766   1.839
 4575SOL    HW218573   0.314   8.686   1.967
 4576SOL     OW18574   0.111   8.517   0.597
 4576SOL    HW118575   0.092   8.576   0.670
 4576SOL    HW218576   0.201   8.540   0.571
 4577SOL     OW18577   0.429   7.870   0.530
 4577SOL    HW118578   0.461   7.800   0.473
 4577SOL    HW218579   0.386   7.824   0.602
 4578SOL     OW18580   1.678   8.929   1.080
 4578SOL    HW118581   1.595   8.921   1.033
 4578SOL    HW218582   1.673   8.863   1.149
 4579SOL     OW18583   0.373   8.012   1.275
 4579SOL    HW118584   0.414   7.939   1.323
 4579SOL    HW218585   0.361   7.978   1.186
 4580SOL     OW18586   0.853   8.997   0.670
 4580SOL    HW118587   0.850   9.061   0.741
 4580SOL    HW218588   0.766   9.002   0.630
 4581SOL     OW18589   1.359   7.647   1.113
 4581SOL    HW118590   1.289   7.583   1.109
 4581SOL    HW218591   1.341   7.697   1.193
 4582SOL     OW18592   1.131   7.492   1.094
 4582SOL    HW118593   1.036   7.481   1.092
 4582SOL    HW218594   1.167   7.406   1.072
 4583SOL     OW18595   0.747   8.771   0.386
 4583SOL    HW118596   0.740   8.675   0.386
 4583SOL    HW218597   0.840   8.787   0.404
 4584SOL     OW18598   1.374   7.429   0.142
 4584SOL    HW118599   1.413   7.516   0.139
 4584SOL    HW218600   1.296   7.439   0.196
 4585SOL     OW18601   1.291   7.884   0.662
 4585SOL    HW118602   1.248   7.969   0.651
 4585SOL    HW218603   1.277   7.862   0.754
 4586SOL     OW18604   1.583   7.675   0.956
 4586SOL    HW118605   1.506   7.669   1.013
 4586SOL    HW218606   1.552   7.725   0.880
 4587SOL     OW18607   0.066   8.516   0.315
 4587SOL    HW118608   0.160   8.499   0.310
 4587SOL    HW218609   0.046   8.516   0.408
 4588SOL     OW18610   0.918   9.132   0.343
 4588SOL    HW118611   0.840   9.106   0.294
 4588SOL    HW218612   0.886   9.198   0.405
 4589SOL     OW18613   0.226   7.657   2.775
 4589SOL    HW118614   0.207   7.627   2.864
 4589SOL    HW218615   0.210   7.581   2.720
 4590SOL     OW18616   0.028   7.881   2.526
 4590SOL    HW118617   9.997   7.875   2.617
 4590SOL    HW218618   9.951   7.860   2.473
 4591SOL     OW18619   0.540   8.729   3.043
 4591SOL    HW118620   0.461   8.759   2.998
 4591SOL    HW218621   0.567   8.804   3.096
 4592SOL     OW18622   1.528   8.898   2.546
 4592SOL    HW118623   1.490   8.900   2.634
 4592SOL    HW218624   1.464   8.945   2.492
 4593SOL     OW18625   1.137   8.126   2.534
 4593SOL    HW118626   1.175   8.214   2.536
 4593SOL    HW218627   1.064   8.130   2.596
 4594SOL     OW18628   1.796   8.050   2.105
 4594SOL    HW118629   1.753   8.045   2.020
 4594SOL    HW218630   1.730   8.020   2.167
 4595SOL     OW18631   0.744   8.583   2.942
 4595SOL    HW118632   0.663   8.618   2.978
 4595SOL    HW218633   0.789   8.658   2.903
 4596SOL     OW18634   0.691   8.384   2.535
 4596SOL    HW118635   0.760   8.395   2.600
 4596SOL    HW218636   0.625   8.449   2.558
 4597SOL     OW18637   0.761   8.599   3.632
 4597SOL    HW118638   0.747   8.693   3.627
 4597SOL    HW218639   0.673   8.561   3.630
 4598SOL     OW18640   0.333   8.873   2.916
 4598SOL    HW118641   0.261   8.855   2.855
 4598SOL    HW218642   0.388   8.936   2.869
 4599SOL     OW18643   1.395   8.916   3.276
 4599SOL    HW118644   1.451   8.993   3.283
 4599SOL    HW218645   1.308   8.947   3.300
 4600SOL     OW18646   0.477   7.849   3.329
 4600SOL    HW118647   0.552   7.791   3.342
 4600SOL    HW218648   0.403   7.790   3.314
 4601SOL     OW18649   1.572   7.881   2.633
 4601SOL    HW118650   1.494   7.883   2.577
 4601SOL    HW218651   1.557   7.949   2.698
 4602SOL     OW18652   0.241   9.068   2.251
 4602SOL    HW118653   0.197   9.143   2.291
 4602SOL    HW218654   0.329   9.100   2.230
 4603SOL     OW18655   1.197   8.761   3.570
 4603SOL    HW118656   1.185   8.781   3.663
 4603SOL    HW218657   1.130   8.695   3.552
 4604SOL     OW18658   0.167   8.852   2.406
 4604SOL    HW118659   0.203   8.932   2.369
 4604SOL    HW218660   0.072   8.863   2.400
 4605SOL     OW18661   0.297   8.518   2.758
 4605SOL    HW118662   0.280   8.425   2.775
 4605SOL    HW218663   0.228   8.564   2.806
 4606SOL     OW18664   0.645   9.201   3.332
 4606SOL    HW118665   0.553   9.188   3.352
 4606SOL    HW218666   0.656   9.296   3.333
 4607SOL     OW18667   1.596   7.572   3.326
 4607SOL    HW118668   1.547   7.636   3.275
 4607SOL    HW218669   1.582   7.597   3.417
 4608SOL     OW18670   0.112   8.122   2.418
 4608SOL    HW118671   0.089   8.037   2.457
 4608SOL    HW218672   0.108   8.184   2.490
 4609SOL     OW18673   1.849   9.206   2.190
 4609SOL    HW118674   1.923   9.186   2.246
 4609SOL    HW218675   1.869   9.292   2.153
 4610SOL     OW18676   0.034   9.042   2.066
 4610SOL    HW118677   0.004   8.952   2.079
 4610SOL    HW218678   0.103   9.054   2.131
 4611SOL     OW18679   1.680   8.390   2.464
 4611SOL    HW118680   1.740   8.358   2.396
 4611SOL    HW218681   1.660   8.480   2.437
 4612SOL     OW18682   1.578   8.599   2.220
 4612SOL    HW118683   1.653   8.569   2.168
 4612SOL    HW218684   1.617   8.648   2.292
 4613SOL     OW18685   0.120   8.239   3.411
 4613SOL    HW118686   0.216   8.234   3.406
 4613SOL    HW218687   0.103   8.319   3.461
 4614SOL     OW18688   0.627   8.829   2.646
 4614SOL    HW118689   0.584   8.744   2.634
 4614SOL    HW218690   0.630   8.867   2.558
 4615SOL     OW18691   1.320   8.619   3.331
 4615SOL    HW118692   1.335   8.585   3.243
 4615SOL    HW218693   1.225   8.617   3.342
 4616SOL     OW18694   0.145   8.392   3.124
 4616SOL    HW118695   0.232   8.358   3.103
 4616SOL    HW218696   0.093   8.376   3.045
 4617SOL     OW18697   1.099   9.342   3.400
 4617SOL    HW118698   1.143   9.286   3.464
 4617SOL    HW218699   1.032   9.286   3.361
 4618SOL     OW18700   0.286   7.712   3.583
 4618SOL    HW118701   0.341   7.789   3.596
 4618SOL    HW218702   0.208   7.728   3.636
 4619SOL     OW18703   1.454   8.845   2.804
 4619SOL    HW118704   1.397   8.886   2.870
 4619SOL    HW218705   1.418   8.757   2.793
 4620SOL     OW18706   1.723   9.076   2.444
 4620SOL    HW118707   1.712   9.113   2.356
 4620SOL    HW218708   1.638   9.035   2.463
 4621SOL     OW18709   0.627   8.206   2.120
 4621SOL    HW118710   0.617   8.288   2.168
 4621SOL    HW218711   0.552   8.153   2.147
 4622SOL     OW18712   1.280   7.833   2.812
 4622SOL    HW118713   1.188   7.807   2.810
 4622SOL    HW218714   1.322   7.770   2.870
 4623SOL     OW18715   1.592   9.099   2.165
 4623SOL    HW118716   1.673   9.149   2.154
 4623SOL    HW218717   1.557   9.089   2.077
 4624SOL     OW18718   0.794   8.066   3.308
 4624SOL    HW118719   0.810   8.026   3.393
 4624SOL    HW218720   0.776   7.992   3.250
 4625SOL     OW18721   1.379   7.921   3.548
 4625SOL    HW118722   1.355   7.982   3.618
 4625SOL    HW218723   1.389   7.977   3.470
 4626SOL     OW18724   0.945   8.319   3.444
 4626SOL    HW118725   0.941   8.278   3.530
 4626SOL    HW218726   0.853   8.337   3.422
 4627SOL     OW18727   1.026   7.827   3.064
 4627SOL    HW118728   0.937   7.852   3.092
 4627SOL    HW218729   1.014   7.790   2.977
 4628SOL     OW18730   1.073   8.162   2.260
 4628SOL    HW118731   1.088   8.146   2.353
 4628SOL    HW218732   0.989   8.120   2.242
 4629SOL     OW18733   0.068   8.252   2.678
 4629SOL    HW118734   0.160   8.244   2.704
 4629SOL    HW218735   0.024   8.287   2.755
 4630SOL     OW18736   0.145   9.246   3.397
 4630SOL    HW118737   0.095   9.247   3.478
 4630SOL    HW218738   0.138   9.335   3.362
 4631SOL     OW18739   0.856   7.749   2.101
 4631SOL    HW118740   0.894   7.805   2.033
 4631SOL    HW218741   0.766   7.734   2.073
 4632SOL     OW18742   1.778   8.027   3.666
 4632SOL    HW118743   1.730   8.101   3.630
 4632SOL    HW218744   1.777   7.961   3.596
 4633SOL     OW18745   1.413   8.598   2.489
 4633SOL    HW118746   1.502   8.632   2.484
 4633SOL    HW218747   1.359   8.667   2.450
 4634SOL     OW18748   0.545   7.655   2.700
 4634SOL    HW118749   0.548   7.748   2.721
 4634SOL    HW218750   0.502   7.652   2.615
 4635SOL     OW18751   1.063   8.946   2.322
 4635SOL    HW118752   1.057   9.026   2.271
 4635SOL    HW218753   1.003   8.959   2.396
 4636SOL     OW18754   0.350   9.273   2.735
 4636SOL    HW118755   0.404   9.195   2.746
 4636SOL    HW218756   0.404   9.345   2.767
 4637SOL     OW18757   1.735   8.382   2.742
 4637SOL    HW118758   1.710   8.409   2.653
 4637SOL    HW218759   1.692   8.447   2.799
 4638SOL     OW18760   1.136   8.979   3.351
 4638SOL    HW118761   1.105   8.959   3.440
 4638SOL    HW218762   1.077   9.047   3.319
 4639SOL     OW18763   1.515   8.185   2.548
 4639SOL    HW118764   1.513   8.176   2.644
 4639SOL    HW218765   1.576   8.256   2.532
 4640SOL     OW18766   0.472   8.656   3.582
 4640SOL    HW118767   0.428   8.702   3.510
 4640SOL    HW218768   0.403   8.604   3.623
 4641SOL     OW18769   0.201   7.754   3.314
 4641SOL    HW118770   0.170   7.843   3.298
 4641SOL    HW218771   0.216   7.751   3.409
 4642SOL     OW18772   1.603   8.788   1.962
 4642SOL    HW118773   1.580   8.880   1.951
 4642SOL    HW218774   1.521   8.741   1.948
 4643SOL     OW18775   0.501   9.163   2.190
 4643SOL    HW118776   0.530   9.236   2.244
 4643SOL    HW218777   0.576   9.142   2.135
 4644SOL     OW18778   1.372   7.565   2.297
 4644SOL    HW118779   1.344   7.533   2.212
 4644SOL    HW218780   1.442   7.628   2.276
 4645SOL     OW18781   0.361   9.225   3.076
 4645SOL    HW118782   0.326   9.309   3.106
 4645SOL    HW218783   0.328   9.216   2.987
 4646SOL     OW18784   0.964   9.156   2.744
 4646SOL    HW118785   1.045   9.108   2.761
 4646SOL    HW218786   0.924   9.113   2.669
 4647SOL     OW18787   1.547   7.701   3.571
 4647SOL    HW118788   1.542   7.673   3.663
 4647SOL    HW218789   1.482   7.771   3.564
 4648SOL     OW18790   0.800   7.675   3.721
 4648SOL    HW118791   0.892   7.647   3.726
 4648SOL    HW218792   0.801   7.762   3.762
 4649SOL     OW18793   0.906   8.996   3.047
 4649SOL    HW118794   0.875   8.971   2.960
 4649SOL    HW218795   0.948   8.917   3.081
 4650SOL     OW18796   1.374   8.058   3.294
 4650SOL    HW118797   1.279   8.057   3.309
 4650SOL    HW218798   1.398   8.150   3.294
 4651SOL     OW18799   0.836   8.823   2.830
 4651SOL    HW118800   0.915   8.826   2.776
 4651SOL    HW218801   0.764   8.834   2.768
 4652SOL     OW18802   0.954   7.987   2.762
 4652SOL    HW118803   0.913   7.979   2.676
 4652SOL    HW218804   0.972   7.897   2.789
 4653SOL     OW18805   0.466   7.580   2.288
 4653SOL    HW118806   0.377   7.578   2.323
 4653SOL    HW218807   0.500   7.666   2.313
 4654SOL     OW18808   1.335   8.683   1.944
 4654SOL    HW118809   1.300   8.645   1.863
 4654SOL    HW218810   1.270   8.748   1.970
 4655SOL     OW18811   0.956   7.719   2.356
 4655SOL    HW118812   0.909   7.717   2.273
 4655SOL    HW218813   1.040   7.759   2.336
 4656SOL     OW18814   1.108   8.061   3.320
 4656SOL    HW118815   1.043   8.063   3.391
 4656SOL    HW218816   1.071   8.117   3.252
 4657SOL     OW18817   1.230   9.033   2.648
 4657SOL    HW118818   1.237   9.093   2.574
 4657SOL    HW218819   1.258   9.084   2.724
 4658SOL     OW18820   0.502   8.582   2.588
 4658SOL    HW118821   0.430   8.566   2.648
 4658SOL    HW218822   0.461   8.582   2.501
 4659SOL     OW18823   1.266   9.239   2.468
 4659SOL    HW118824   1.324   9.295   2.416
 4659SOL    HW218825   1.191   9.295   2.487
 4660SOL     OW18826   1.010   7.917   1.924
 4660SOL    HW118827   0.963   7.998   1.905
 4660SOL    HW218828   1.077   7.942   1.988
 4661SOL     OW18829   0.129   8.009   3.241
 4661SOL    HW118830   0.213   8.032   3.201
 4661SOL    HW218831   0.107   8.085   3.295
 4662SOL     OW18832   0.574   7.686   3.062
 4662SOL    HW118833   0.608   7.615   3.007
 4662SOL    HW218834   0.480   7.668   3.068
 4663SOL     OW18835   0.843   7.939   2.523
 4663SOL    HW118836   0.762   7.984   2.500
 4663SOL    HW218837   0.850   7.868   2.459
 4664SOL     OW18838   1.038   7.553   2.563
 4664SOL    HW118839   1.004   7.609   2.493
 4664SOL    HW218840   0.973   7.483   2.570
 4665SOL     OW18841   1.374   8.587   2.762
 4665SOL    HW118842   1.281   8.567   2.773
 4665SOL    HW218843   1.388   8.584   2.667
 4666SOL     OW18844   1.462   8.047   2.833
 4666SOL    HW118845   1.391   7.984   2.831
 4666SOL    HW218846   1.500   8.038   2.920
 4667SOL     OW18847   1.856   8.262   2.277
 4667SOL    HW118848   1.898   8.210   2.346
 4667SOL    HW218849   1.838   8.198   2.207
 4668SOL     OW18850   1.679   8.686   2.464
 4668SOL    HW118851   1.768   8.687   2.497
 4668SOL    HW218852   1.641   8.770   2.491
 4669SOL     OW18853   1.383   8.030   1.893
 4669SOL    HW118854   1.330   8.007   1.969
 4669SOL    HW218855   1.474   8.019   1.922
 4670SOL     OW18856   0.585   7.688   2.037
 4670SOL    HW118857   0.558   7.631   2.109
 4670SOL    HW218858   0.535   7.769   2.050
 4671SOL     OW18859   1.743   8.676   3.364
 4671SOL    HW118860   1.837   8.659   3.371
 4671SOL    HW218861   1.729   8.755   3.417
 4672SOL     OW18862   1.020   8.782   3.190
 4672SOL    HW118863   0.941   8.756   3.237
 4672SOL    HW218864   1.066   8.840   3.250
 4673SOL     OW18865   1.601   8.901   3.493
 4673SOL    HW118866   1.599   8.979   3.438
 4673SOL    HW218867   1.671   8.919   3.556
 4674SOL     OW18868   1.145   8.685   2.965
 4674SOL    HW118869   1.081   8.707   3.032
 4674SOL    HW218870   1.109   8.721   2.884
 4675SOL     OW18871   1.598   8.550   2.922
 4675SOL    HW118872   1.604   8.627   2.980
 4675SOL    HW218873   1.516   8.562   2.875
 4676SOL     OW18874   0.912   7.566   3.235
 4676SOL    HW118875   0.915   7.561   3.139
 4676SOL    HW218876   0.994   7.609   3.259
 4677SOL     OW18877   1.019   8.557   3.553
 4677SOL    HW118878   0.932   8.578   3.588
 4677SOL    HW218879   1.005   8.478   3.501
 4678SOL     OW18880   0.679   8.455   2.262
 4678SOL    HW118881   0.691   8.428   2.353
 4678SOL    HW218882   0.761   8.431   2.219
 4679SOL     OW18883   0.403   8.278   3.106
 4679SOL    HW118884   0.464   8.293   3.178
 4679SOL    HW218885   0.388   8.184   3.106
 4680SOL     OW18886   1.282   7.825   3.156
 4680SOL    HW118887   1.310   7.907   3.197
 4680SOL    HW218888   1.193   7.842   3.125
 4681SOL     OW18889   0.081   9.011   3.260
 4681SOL    HW118890   0.082   9.094   3.309
 4681SOL    HW218891   0.171   9.000   3.230
 4682SOL     OW18892   0.428   8.568   2.319
 4682SOL    HW118893   0.398   8.627   2.250
 4682SOL    HW218894   0.512   8.533   2.287
 4683SOL     OW18895   0.547   7.935   2.726
 4683SOL    HW118896   0.562   7.983   2.645
 4683SOL    HW218897   0.605   7.978   2.790
 4684SOL     OW18898   1.287   8.780   2.330
 4684SOL    HW118899   1.337   8.862   2.330
 4684SOL    HW218900   1.196   8.808   2.335
 4685SOL     OW18901   1.294   8.917   3.014
 4685SOL    HW118902   1.327   8.911   3.104
 4685SOL    HW218903   1.237   8.841   3.004
 4686SOL     OW18904   1.586   8.045   2.306
 4686SOL    HW118905   1.561   8.059   2.398
 4686SOL    HW218906   1.567   8.128   2.263
 4687SOL     OW18907   0.341   8.970   3.175
 4687SOL    HW118908   0.333   8.927   3.089
 4687SOL    HW218909   0.357   9.062   3.154
 4688SOL     OW18910   0.401   8.122   3.411
 4688SOL    HW118911   0.469   8.179   3.375
 4688SOL    HW218912   0.427   8.034   3.384
 4689SOL     OW18913   1.632   8.231   3.555
 4689SOL    HW118914   1.537   8.246   3.562
 4689SOL    HW218915   1.659   8.285   3.481
 4690SOL     OW18916   1.080   7.586   3.699
 4690SOL    HW118917   1.094   7.668   3.652
 4690SOL    HW218918   1.091   7.518   3.633
 4691SOL     OW18919   0.432   7.469   3.605
 4691SOL    HW118920   0.400   7.414   3.533
 4691SOL    HW218921   0.384   7.551   3.596
 4692SOL     OW18922   0.576   8.317   2.896
 4692SOL    HW118923   0.602   8.409   2.885
 4692SOL    HW218924   0.514   8.319   2.969
 4693SOL     OW18925   1.312   8.284   2.907
 4693SOL    HW118926   1.219   8.267   2.890
 4693SOL    HW218927   1.357   8.209   2.867
 4694SOL     OW18928   1.216   7.981   2.107
 4694SOL    HW118929   1.217   7.911   2.173
 4694SOL    HW218930   1.173   8.055   2.151
 4695SOL     OW18931   0.309   7.621   3.094
 4695SOL    HW118932   0.257   7.659   3.164
 4695SOL    HW218933   0.270   7.534   3.079
 4696SOL     OW18934   0.024   8.777   3.129
 4696SOL    HW118935   0.072   8.723   3.193
 4696SOL    HW218936   0.028   8.866   3.165
 4697SOL     OW18937   0.710   8.073   2.902
 4697SOL    HW118938   0.791   8.082   2.851
 4697SOL    HW218939   0.671   8.161   2.901
 4698SOL     OW18940   1.752   8.408   3.734
 4698SOL    HW118941   1.707   8.341   3.682
 4698SOL    HW218942   1.686   8.439   3.795
 4699SOL     OW18943   1.559   7.769   2.234
 4699SOL    HW118944   1.631   7.735   2.287
 4699SOL    HW218945   1.553   7.861   2.258
 4700SOL     OW18946   1.039   8.222   2.880
 4700SOL    HW118947   1.013   8.221   2.972
 4700SOL    HW218948   1.014   8.136   2.847
 4701SOL     OW18949   0.978   8.991   3.584
 4701SOL    HW118950   0.898   9.037   3.557
 4701SOL    HW218951   0.947   8.927   3.648
 4702SOL     OW18952   1.897   8.917   3.504
 4702SOL    HW118953   1.895   8.942   3.411
 4702SOL    HW218954   1.925   8.997   3.549
 4703SOL     OW18955   0.499   8.266   3.652
 4703SOL    HW118956   0.443   8.322   3.705
 4703SOL    HW218957   0.452   8.255   3.570
 4704SOL     OW18958   1.512   7.655   1.979
 4704SOL    HW118959   1.429   7.613   2.000
 4704SOL    HW218960   1.535   7.705   2.057
 4705SOL     OW18961   1.312   8.301   1.894
 4705SOL    HW118962   1.326   8.207   1.886
 4705SOL    HW218963   1.346   8.338   1.812
 4706SOL     OW18964   1.088   8.808   2.722
 4706SOL    HW118965   1.105   8.733   2.665
 4706SOL    HW218966   1.138   8.880   2.683
 4707SOL     OW18967   0.320   8.227   2.788
 4707SOL    HW118968   0.411   8.252   2.804
 4707SOL    HW218969   0.315   8.136   2.817
 4708SOL     OW18970   0.305   7.917   2.855
 4708SOL    HW118971   0.267   7.833   2.830
 4708SOL    HW218972   0.385   7.923   2.803
 4709SOL     OW18973   1.111   7.815   3.554
 4709SOL    HW118974   1.037   7.877   3.558
 4709SOL    HW218975   1.189   7.870   3.563
 4710SOL     OW18976   1.157   7.658   3.335
 4710SOL    HW118977   1.138   7.716   3.409
 4710SOL    HW218978   1.204   7.713   3.273
 4711SOL     OW18979   9.941   8.781   2.095
 4711SOL    HW118980   9.876   8.768   2.025
 4711SOL    HW218981   9.974   8.693   2.113
 4712SOL     OW18982   0.097   9.147   2.786
 4712SOL    HW118983   0.129   9.061   2.758
 4712SOL    HW218984   0.168   9.207   2.765
 4713SOL     OW18985   0.502   9.041   2.779
 4713SOL    HW118986   0.574   9.100   2.804
 4713SOL    HW218987   0.545   8.970   2.731
 4714SOL     OW18988   0.957   8.226   3.146
 4714SOL    HW118989   0.945   8.313   3.183
 4714SOL    HW218990   0.892   8.171   3.190
 4715SOL     OW18991   0.043   7.982   2.954
 4715SOL    HW118992   0.134   7.971   2.928
 4715SOL    HW218993   0.047   7.991   3.049
 4716SOL     OW18994   0.234   8.025   3.619
 4716SOL    HW118995   0.287   8.062   3.549
 4716SOL    HW218996   0.197   8.101   3.664
 4717SOL     OW18997   1.367   8.298   3.552
 4717SOL    HW118998   1.306   8.355   3.599
 4717SOL    HW218999   1.361   8.327   3.461
 4718SOL     OW19000   0.837   8.045   2.196
 4718SOL    HW119001   0.793   7.960   2.198
 4718SOL    HW219002   0.769   8.106   2.165
 4719SOL     OW19003   1.567   8.011   3.090
 4719SOL    HW119004   1.501   8.030   3.157
 4719SOL    HW219005   1.630   7.955   3.135
 4720SOL     OW19006   0.292   8.906   3.660
 4720SOL    HW119007   0.212   8.957   3.664
 4720SOL    HW219008   0.291   8.865   3.573
 4721SOL     OW19009   0.757   7.886   3.102
 4721SOL    HW119010   0.692   7.816   3.095
 4721SOL    HW219011   0.731   7.949   3.035
 4722SOL     OW19012   0.928   9.153   3.277
 4722SOL    HW119013   0.923   9.115   3.189
 4722SOL    HW219014   0.837   9.175   3.299
 4723SOL     OW19015   0.165   8.606   3.295
 4723SOL    HW119016   0.131   8.569   3.376
 4723SOL    HW219017   0.164   8.533   3.233
 4724SOL     OW19018   1.306   8.496   3.083
 4724SOL    HW119019   1.316   8.426   3.018
 4724SOL    HW219020   1.252   8.561   3.039
 4725SOL     OW19021   1.298   8.394   2.160
 4725SOL    HW119022   1.232   8.340   2.204
 4725SOL    HW219023   1.297   8.364   2.069
 4726SOL     OW19024   1.722   9.162   3.081
 4726SOL    HW119025   1.774   9.241   3.095
 4726SOL    HW219026   1.659   9.186   3.013
 4727SOL     OW19027   1.280   9.164   2.888
 4727SOL    HW119028   1.367   9.204   2.895
 4727SOL    HW219029   1.286   9.084   2.940
 4728SOL     OW19030   0.083   8.633   2.894
 4728SOL    HW119031   0.085   8.681   2.977
 4728SOL    HW219032   0.002   8.662   2.852
 4729SOL     OW19033   0.686   9.134   3.598
 4729SOL    HW119034   0.628   9.202   3.632
 4729SOL    HW219035   0.684   9.146   3.503
 4730SOL     OW19036   1.761   7.629   2.365
 4730SOL    HW119037   1.818   7.616   2.289
 4730SOL    HW219038   1.723   7.543   2.381
 4731SOL     OW19039   1.398   9.027   2.345
 4731SOL    HW119040   1.457   9.063   2.278
 4731SOL    HW219041   1.341   9.100   2.368
 4732SOL     OW19042   1.289   8.354   2.509
 4732SOL    HW119043   1.361   8.291   2.510
 4732SOL    HW219044   1.330   8.438   2.492
 4733SOL     OW19045   0.781   8.740   3.321
 4733SOL    HW119046   0.755   8.760   3.411
 4733SOL    HW219047   0.731   8.801   3.267
 4734SOL     OW19048   1.581   9.116   3.314
 4734SOL    HW119049   1.628   9.125   3.231
 4734SOL    HW219050   1.576   9.205   3.349
 4735SOL     OW19051   1.815   7.574   2.884
 4735SOL    HW119052   1.840   7.493   2.839
 4735SOL    HW219053   1.733   7.600   2.841
 4736SOL     OW19054   0.296   7.783   2.533
 4736SOL    HW119055   0.211   7.821   2.510
 4736SOL    HW219056   0.280   7.734   2.613
 4737SOL     OW19057   1.213   9.021   1.904
 4737SOL    HW119058   1.182   8.960   1.972
 4737SOL    HW219059   1.155   9.005   1.830
 4738SOL     OW19060   0.781   8.477   3.212
 4738SOL    HW119061   0.772   8.503   3.120
 4738SOL    HW219062   0.778   8.559   3.261
 4739SOL     OW19063   0.913   8.372   2.150
 4739SOL    HW119064   0.963   8.418   2.083
 4739SOL    HW219065   0.973   8.307   2.185
 4740SOL     OW19066   1.493   9.037   1.913
 4740SOL    HW119067   1.398   9.048   1.907
 4740SOL    HW219068   1.524   9.049   1.824
 4741SOL     OW19069   0.330   8.805   3.398
 4741SOL    HW119070   0.344   8.866   3.325
 4741SOL    HW219071   0.271   8.738   3.362
 4742SOL     OW19072   1.612   8.757   3.122
 4742SOL    HW119073   1.665   8.727   3.196
 4742SOL    HW219074   1.539   8.805   3.162
 4743SOL     OW19075   1.116   8.542   2.637
 4743SOL    HW119076   1.030   8.509   2.664
 4743SOL    HW219077   1.153   8.472   2.584
 4744SOL     OW19078   1.030   7.708   2.805
 4744SOL    HW119079   1.033   7.671   2.716
 4744SOL    HW219080   0.999   7.635   2.860
 4745SOL     OW19081   0.639   8.940   2.392
 4745SOL    HW119082   0.668   8.871   2.332
 4745SOL    HW219083   0.578   8.993   2.341
 4746SOL     OW19084   1.764   7.857   3.228
 4746SOL    HW119085   1.840   7.915   3.229
 4746SOL    HW219086   1.797   7.773   3.197
 4747SOL     OW19087   0.258   8.740   2.160
 4747SOL    HW119088   0.227   8.819   2.116
 4747SOL    HW219089   0.245   8.757   2.253
 4748SOL     OW19090   0.063   8.496   3.525
 4748SOL    HW119091   0.015   8.579   3.536
 4748SOL    HW219092   0.132   8.500   3.591
 4749SOL     OW19093   0.692   7.657   3.398
 4749SOL    HW119094   0.769   7.643   3.342
 4749SOL    HW219095   0.728   7.673   3.485
 4750SOL     OW19096   1.415   8.325   3.272
 4750SOL    HW119097   1.355   8.379   3.220
 4750SOL    HW219098   1.500   8.335   3.228
 4751SOL     OW19099   1.137   8.820   2.078
 4751SOL    HW119100   1.053   8.779   2.056
 4751SOL    HW219101   1.118   8.872   2.156
 4752SOL     OW19102   0.608   8.270   3.292
 4752SOL    HW119103   0.658   8.348   3.271
 4752SOL    HW219104   0.674   8.200   3.298
 4753SOL     OW19105   1.532   9.287   2.913
 4753SOL    HW119106   1.557   9.344   2.840
 4753SOL    HW219107   1.497   9.347   2.979
 4754SOL     OW19108   0.886   7.978   3.565
 4754SOL    HW119109   0.905   8.067   3.595
 4754SOL    HW219110   0.845   7.936   3.641
 4755SOL     OW19111   0.395   9.154   3.460
 4755SOL    HW119112   0.316   9.193   3.423
 4755SOL    HW219113   0.365   9.073   3.502
 4756SOL     OW19114   1.632   8.340   3.096
 4756SOL    HW119115   1.616   8.262   3.042
 4756SOL    HW219116   1.622   8.413   3.036
 4757SOL     OW19117   1.219   7.797   2.313
 4757SOL    HW119118   1.262   7.711   2.314
 4757SOL    HW219119   1.250   7.839   2.394
 4758SOL     OW19120   0.613   8.104   2.506
 4758SOL    HW119121   0.632   8.197   2.511
 4758SOL    HW219122   0.554   8.094   2.432
 4759SOL     OW19123   1.792   7.797   3.501
 4759SOL    HW119124   1.769   7.822   3.411
 4759SOL    HW219125   1.712   7.758   3.536
 4760SOL     OW19126   1.724   8.392   3.349
 4760SOL    HW119127   1.719   8.487   3.361
 4760SOL    HW219128   1.703   8.378   3.256
 4761SOL     OW19129   0.697   9.223   2.827
 4761SOL    HW119130   0.666   9.313   2.818
 4761SOL    HW219131   0.788   9.225   2.797
 4762SOL     OW19132   0.886   8.423   2.747
 4762SOL    HW119133   0.936   8.359   2.798
 4762SOL    HW219134   0.836   8.472   2.813
 4763SOL     OW19135   1.080   8.450   1.950
 4763SOL    HW119136   1.073   8.526   1.893
 4763SOL    HW219137   1.145   8.394   1.908
 4764SOL     OW19138   1.863   8.990   2.660
 4764SOL    HW119139   1.805   9.026   2.593
 4764SOL    HW219140   1.804   8.961   2.730
 4765SOL     OW19141   0.003   8.580   2.432
 4765SOL    HW119142   9.938   8.565   2.500
 4765SOL    HW219143   0.070   8.635   2.474
 4766SOL     OW19144   0.678   8.851   3.562
 4766SOL    HW119145   0.593   8.807   3.574
 4766SOL    HW219146   0.659   8.943   3.581
 4767SOL     OW19147   1.836   7.597   3.159
 4767SOL    HW119148   1.755   7.564   3.197
 4767SOL    HW219149   1.824   7.589   3.064
 4768SOL     OW19150   0.513   7.840   2.361
 4768SOL    HW119151   0.487   7.898   2.290
 4768SOL    HW219152   0.438   7.840   2.421
 4769SOL     OW19153   1.718   8.861   2.868
 4769SOL    HW119154   1.629   8.861   2.832
 4769SOL    HW219155   1.705   8.854   2.963
 4770SOL     OW19156   0.375   8.006   3.110
 4770SOL    HW119157   0.428   7.944   3.160
 4770SOL    HW219158   0.360   7.962   3.026
 4771SOL     OW19159   0.869   9.050   2.508
 4771SOL    HW119160   0.868   9.138   2.470
 4771SOL    HW219161   0.788   9.010   2.476
 4772SOL     OW19162   1.397   7.647   2.984
 4772SOL    HW119163   1.362   7.561   3.007
 4772SOL    HW219164   1.363   7.705   3.052
 4773SOL     OW19165   0.939   7.494   2.955
 4773SOL    HW119166   0.845   7.492   2.937
 4773SOL    HW219167   0.974   7.419   2.907
 4774SOL     OW19168   0.720   8.738   2.228
 4774SOL    HW119169   0.711   8.644   2.245
 4774SOL    HW219170   0.791   8.744   2.164
 4775SOL     OW19171   0.664   8.945   3.180
 4775SOL    HW119172   0.623   9.023   3.218
 4775SOL    HW219173   0.730   8.980   3.120
 4776SOL     OW19174   1.290   7.500   2.036
 4776SOL    HW119175   1.289   7.409   2.007
 4776SOL    HW219176   1.207   7.536   2.004
 4777SOL     OW19177   1.308   7.910   2.547
 4777SOL    HW119178   1.254   7.988   2.536
 4777SOL    HW219179   1.290   7.881   2.637
 4778SOL     OW19180   1.573   7.635   2.771
 4778SOL    HW119181   1.512   7.651   2.844
 4778SOL    HW219182   1.568   7.715   2.719
 4779SOL     OW19183   0.058   8.538   2.167
 4779SOL    HW119184   0.142   8.583   2.167
 4779SOL    HW219185   0.032   8.535   2.259
 4780SOL     OW19186   0.308   8.087   3.947
 4780SOL    HW119187   0.331   8.142   4.022
 4780SOL    HW219188   0.258   8.146   3.890
 4781SOL     OW19189   0.173   7.700   4.774
 4781SOL    HW119190   0.222   7.685   4.854
 4781SOL    HW219191   0.129   7.784   4.788
 4782SOL     OW19192   9.957   7.792   4.519
 4782SOL    HW119193   9.937   7.880   4.549
 4782SOL    HW219194   9.901   7.778   4.443
 4783SOL     OW19195   1.518   8.919   4.412
 4783SOL    HW119196   1.452   8.941   4.478
 4783SOL    HW219197   1.478   8.944   4.329
 4784SOL     OW19198   1.132   8.137   4.478
 4784SOL    HW119199   1.172   8.205   4.424
 4784SOL    HW219200   1.110   8.181   4.560
 4785SOL     OW19201   1.728   8.036   3.938
 4785SOL    HW119202   1.748   8.033   3.845
 4785SOL    HW219203   1.633   8.026   3.943
 4786SOL     OW19204   0.755   8.579   4.726
 4786SOL    HW119205   0.669   8.579   4.768
 4786SOL    HW219206   0.788   8.668   4.737
 4787SOL     OW19207   0.894   8.198   5.539
 4787SOL    HW119208   0.908   8.264   5.607
 4787SOL    HW219209   0.914   8.242   5.457
 4788SOL     OW19210   0.723   8.377   4.399
 4788SOL    HW119211   0.792   8.402   4.460
 4788SOL    HW219212   0.652   8.439   4.417
 4789SOL     OW19213   0.715   8.566   5.524
 4789SOL    HW119214   0.727   8.661   5.523
 4789SOL    HW219215   0.659   8.548   5.448
 4790SOL     OW19216   0.287   8.854   4.729
 4790SOL    HW119217   0.203   8.885   4.695
 4790SOL    HW219218   0.343   8.932   4.729
 4791SOL     OW19219   0.427   7.834   5.264
 4791SOL    HW119220   0.508   7.783   5.257
 4791SOL    HW219221   0.430   7.894   5.189
 4792SOL     OW19222   0.270   9.114   4.273
 4792SOL    HW119223   0.310   9.152   4.351
 4792SOL    HW219224   0.197   9.173   4.252
 4793SOL     OW19225   1.131   8.770   5.359
 4793SOL    HW119226   1.220   8.741   5.336
 4793SOL    HW219227   1.093   8.694   5.403
 4794SOL     OW19228   0.191   8.872   4.161
 4794SOL    HW119229   0.234   8.948   4.201
 4794SOL    HW219230   0.190   8.806   4.230
 4795SOL     OW19231   0.257   8.538   4.614
 4795SOL    HW119232   0.308   8.493   4.681
 4795SOL    HW219233   0.214   8.609   4.660
 4796SOL     OW19234   1.577   7.560   5.153
 4796SOL    HW119235   1.521   7.598   5.085
 4796SOL    HW219236   1.539   7.590   5.235
 4797SOL     OW19237   0.211   8.059   4.352
 4797SOL    HW119238   0.139   8.064   4.289
 4797SOL    HW219239   0.186   8.120   4.421
 4798SOL     OW19240   1.876   9.183   4.048
 4798SOL    HW119241   1.834   9.193   4.133
 4798SOL    HW219242   1.888   9.273   4.017
 4799SOL     OW19243   1.692   8.310   4.266
 4799SOL    HW119244   1.743   8.338   4.343
 4799SOL    HW219245   1.663   8.392   4.225
 4800SOL     OW19246   1.636   8.557   4.142
 4800SOL    HW119247   1.723   8.550   4.104
 4800SOL    HW219248   1.648   8.613   4.219
 4801SOL     OW19249   0.169   8.192   5.337
 4801SOL    HW119250   0.261   8.207   5.318
 4801SOL    HW219251   0.138   8.275   5.373
 4802SOL     OW19252   0.603   8.806   4.403
 4802SOL    HW119253   0.569   8.716   4.408
 4802SOL    HW219254   0.586   8.833   4.313
 4803SOL     OW19255   0.838   7.529   4.192
 4803SOL    HW119256   0.838   7.608   4.138
 4803SOL    HW219257   0.746   7.512   4.211
 4804SOL     OW19258   0.133   8.341   5.041
 4804SOL    HW119259   0.226   8.321   5.027
 4804SOL    HW219260   0.099   8.358   4.954
 4805SOL     OW19261   1.533   8.479   3.894
 4805SOL    HW119262   1.466   8.414   3.915
 4805SOL    HW219263   1.563   8.511   3.979
 4806SOL     OW19264   1.178   9.305   5.366
 4806SOL    HW119265   1.175   9.370   5.295
 4806SOL    HW219266   1.203   9.223   5.323
 4807SOL     OW19267   0.338   7.716   5.567
 4807SOL    HW119268   0.424   7.708   5.526
 4807SOL    HW219269   0.294   7.786   5.518
 4808SOL     OW19270   1.702   9.205   4.262
 4808SOL    HW119271   1.634   9.168   4.205
 4808SOL    HW219272   1.684   9.169   4.348
 4809SOL     OW19273   1.284   7.755   4.637
 4809SOL    HW119274   1.198   7.719   4.617
 4809SOL    HW219275   1.273   7.798   4.722
 4810SOL     OW19276   1.580   9.120   4.023
 4810SOL    HW119277   1.672   9.138   4.003
 4810SOL    HW219278   1.537   9.121   3.938
 4811SOL     OW19279   0.856   7.969   5.205
 4811SOL    HW119280   0.798   7.992   5.278
 4811SOL    HW219281   0.799   7.965   5.129
 4812SOL     OW19282   1.468   7.904   5.459
 4812SOL    HW119283   1.455   7.955   5.539
 4812SOL    HW219284   1.380   7.885   5.428
 4813SOL     OW19285   0.962   8.328   5.306
 4813SOL    HW119286   1.021   8.274   5.253
 4813SOL    HW219287   0.912   8.379   5.242
 4814SOL     OW19288   0.998   7.799   5.010
 4814SOL    HW119289   1.003   7.807   5.105
 4814SOL    HW219290   0.915   7.842   4.987
 4815SOL     OW19291   1.116   8.175   4.104
 4815SOL    HW119292   1.046   8.215   4.156
 4815SOL    HW219293   1.089   8.190   4.013
 4816SOL     OW19294   0.134   8.216   4.570
 4816SOL    HW119295   0.204   8.225   4.634
 4816SOL    HW219296   0.107   8.306   4.550
 4817SOL     OW19297   0.128   9.290   5.352
 4817SOL    HW119298   0.128   9.256   5.442
 4817SOL    HW219299   0.187   9.231   5.304
 4818SOL     OW19300   1.348   8.557   4.217
 4818SOL    HW119301   1.439   8.565   4.189
 4818SOL    HW219302   1.305   8.635   4.185
 4819SOL     OW19303   0.518   7.663   4.652
 4819SOL    HW119304   0.535   7.688   4.743
 4819SOL    HW219305   0.548   7.738   4.601
 4820SOL     OW19306   0.986   8.902   4.195
 4820SOL    HW119307   0.977   8.981   4.142
 4820SOL    HW219308   0.944   8.923   4.278
 4821SOL     OW19309   1.713   8.485   4.556
 4821SOL    HW119310   1.697   8.557   4.495
 4821SOL    HW219311   1.704   8.523   4.643
 4822SOL     OW19312   1.255   9.010   5.189
 4822SOL    HW119313   1.298   8.939   5.237
 4822SOL    HW219314   1.163   8.986   5.187
 4823SOL     OW19315   1.535   8.281   4.557
 4823SOL    HW119316   1.472   8.311   4.623
 4823SOL    HW219317   1.599   8.352   4.551
 4824SOL     OW19318   1.172   9.222   3.945
 4824SOL    HW119319   1.093   9.200   3.992
 4824SOL    HW219320   1.174   9.163   3.870
 4825SOL     OW19321   0.174   7.756   5.180
 4825SOL    HW119322   0.147   7.843   5.150
 4825SOL    HW219323   0.258   7.771   5.223
 4826SOL     OW19324   1.642   8.851   3.799
 4826SOL    HW119325   1.599   8.937   3.798
 4826SOL    HW219326   1.574   8.790   3.774
 4827SOL     OW19327   0.574   9.170   4.049
 4827SOL    HW119328   0.535   9.193   4.133
 4827SOL    HW219329   0.580   9.253   4.002
 4828SOL     OW19330   1.358   7.569   4.152
 4828SOL    HW119331   1.327   7.553   4.062
 4828SOL    HW219332   1.427   7.634   4.143
 4829SOL     OW19333   1.018   9.107   4.600
 4829SOL    HW119334   1.003   9.074   4.689
 4829SOL    HW219335   0.949   9.065   4.548
 4830SOL     OW19336   0.422   8.169   4.197
 4830SOL    HW119337   0.353   8.136   4.254
 4830SOL    HW219338   0.415   8.264   4.204
 4831SOL     OW19339   1.578   7.651   5.453
 4831SOL    HW119340   1.577   7.624   5.544
 4831SOL    HW219341   1.529   7.733   5.451
 4832SOL     OW19342   0.585   7.539   3.830
 4832SOL    HW119343   0.662   7.583   3.793
 4832SOL    HW219344   0.530   7.520   3.753
 4833SOL     OW19345   1.020   9.005   4.871
 4833SOL    HW119346   0.948   8.951   4.839
 4833SOL    HW219347   1.063   8.952   4.938
 4834SOL     OW19348   1.343   8.044   5.072
 4834SOL    HW119349   1.257   8.057   5.112
 4834SOL    HW219350   1.386   8.129   5.080
 4835SOL     OW19351   0.857   8.835   4.730
 4835SOL    HW119352   0.922   8.827   4.660
 4835SOL    HW219353   0.785   8.884   4.690
 4836SOL     OW19354   0.936   7.962   4.578
 4836SOL    HW119355   0.881   7.921   4.512
 4836SOL    HW219356   0.996   8.017   4.528
 4837SOL     OW19357   0.568   7.507   4.242
 4837SOL    HW119358   0.501   7.511   4.310
 4837SOL    HW219359   0.560   7.590   4.196
 4838SOL     OW19360   1.437   8.676   3.718
 4838SOL    HW119361   1.472   8.601   3.764
 4838SOL    HW219362   1.353   8.693   3.760
 4839SOL     OW19363   0.280   7.527   3.900
 4839SOL    HW119364   0.321   7.613   3.888
 4839SOL    HW219365   0.349   7.474   3.940
 4840SOL     OW19366   0.878   7.794   4.104
 4840SOL    HW119367   0.813   7.844   4.055
 4840SOL    HW219368   0.962   7.817   4.063
 4841SOL     OW19369   1.082   8.118   5.141
 4841SOL    HW119370   1.015   8.058   5.176
 4841SOL    HW219371   1.036   8.168   5.073
 4842SOL     OW19372   1.264   9.024   4.508
 4842SOL    HW119373   1.281   9.092   4.443
 4842SOL    HW219374   1.184   9.053   4.552
 4843SOL     OW19375   0.501   8.534   4.440
 4843SOL    HW119376   0.429   8.555   4.500
 4843SOL    HW219377   0.458   8.497   4.363
 4844SOL     OW19378   1.287   9.245   4.339
 4844SOL    HW119379   1.335   9.316   4.295
 4844SOL    HW219380   1.202   9.282   4.359
 4845SOL     OW19381   0.133   8.019   5.109
 4845SOL    HW119382   0.226   8.023   5.086
 4845SOL    HW219383   0.122   8.090   5.172
 4846SOL     OW19384   0.574   7.690   4.941
 4846SOL    HW119385   0.612   7.669   5.026
 4846SOL    HW219386   0.480   7.672   4.952
 4847SOL     OW19387   0.810   7.807   4.374
 4847SOL    HW119388   0.715   7.810   4.384
 4847SOL    HW219389   0.825   7.832   4.283
 4848SOL     OW19390   1.354   8.520   4.542
 4848SOL    HW119391   1.319   8.564   4.619
 4848SOL    HW219392   1.346   8.584   4.471
 4849SOL     OW19393   1.476   8.008   4.647
 4849SOL    HW119394   1.422   8.077   4.687
 4849SOL    HW219395   1.538   7.983   4.715
 4850SOL     OW19396   1.931   8.201   4.035
 4850SOL    HW119397   1.944   8.182   4.128
 4850SOL    HW219398   1.850   8.155   4.012
 4851SOL     OW19399   1.682   8.696   4.372
 4851SOL    HW119400   1.773   8.714   4.395
 4851SOL    HW219401   1.635   8.776   4.394
 4852SOL     OW19402   1.448   8.010   3.965
 4852SOL    HW119403   1.369   7.959   3.985
 4852SOL    HW219404   1.419   8.073   3.899
 4853SOL     OW19405   0.564   7.713   4.059
 4853SOL    HW119406   0.564   7.664   3.977
 4853SOL    HW219407   0.600   7.799   4.037
 4854SOL     OW19408   1.775   8.693   5.282
 4854SOL    HW119409   1.789   8.788   5.286
 4854SOL    HW219410   1.696   8.678   5.333
 4855SOL     OW19411   1.101   8.781   5.044
 4855SOL    HW119412   1.019   8.773   5.093
 4855SOL    HW219413   1.165   8.730   5.094
 4856SOL     OW19414   1.620   9.071   5.406
 4856SOL    HW119415   1.598   9.120   5.326
 4856SOL    HW219416   1.698   9.021   5.382
 4857SOL     OW19417   1.181   8.666   4.799
 4857SOL    HW119418   1.144   8.703   4.879
 4857SOL    HW219419   1.140   8.715   4.728
 4858SOL     OW19420   1.074   7.531   5.016
 4858SOL    HW119421   1.041   7.621   5.008
 4858SOL    HW219422   1.111   7.527   5.104
 4859SOL     OW19423   0.991   8.548   5.472
 4859SOL    HW119424   0.899   8.566   5.491
 4859SOL    HW219425   0.989   8.476   5.409
 4860SOL     OW19426   0.751   8.482   4.139
 4860SOL    HW119427   0.663   8.473   4.103
 4860SOL    HW219428   0.745   8.445   4.227
 4861SOL     OW19429   0.406   8.263   5.021
 4861SOL    HW119430   0.470   8.333   5.006
 4861SOL    HW219431   0.417   8.241   5.113
 4862SOL     OW19432   1.246   7.853   4.896
 4862SOL    HW119433   1.284   7.924   4.947
 4862SOL    HW219434   1.159   7.840   4.934
 4863SOL     OW19435   0.061   9.033   5.111
 4863SOL    HW119436   0.051   9.098   5.042
 4863SOL    HW219437   0.142   9.057   5.156
 4864SOL     OW19438   0.593   7.939   4.590
 4864SOL    HW119439   0.597   7.990   4.509
 4864SOL    HW219440   0.645   7.989   4.653
 4865SOL     OW19441   1.234   8.799   4.122
 4865SOL    HW119442   1.289   8.873   4.146
 4865SOL    HW219443   1.147   8.822   4.154
 4866SOL     OW19444   1.539   8.090   4.225
 4866SOL    HW119445   1.600   8.164   4.224
 4866SOL    HW219446   1.508   8.084   4.134
 4867SOL     OW19447   0.446   8.185   5.280
 4867SOL    HW119448   0.441   8.278   5.301
 4867SOL    HW219449   0.518   8.152   5.334
 4868SOL     OW19450   1.602   8.283   5.359
 4868SOL    HW119451   1.511   8.310   5.355
 4868SOL    HW219452   1.646   8.335   5.292
 4869SOL     OW19453   0.601   8.334   4.726
 4869SOL    HW119454   0.632   8.391   4.656
 4869SOL    HW219455   0.577   8.393   4.797
 4870SOL     OW19456   1.316   8.210   4.738
 4870SOL    HW119457   1.222   8.195   4.746
 4870SOL    HW219458   1.330   8.294   4.783
 4871SOL     OW19459   1.182   7.924   4.007
 4871SOL    HW119460   1.141   7.939   3.922
 4871SOL    HW219461   1.162   8.003   4.058
 4872SOL     OW19462   0.316   7.612   4.994
 4872SOL    HW119463   0.263   7.649   5.064
 4872SOL    HW219464   0.283   7.523   4.983
 4873SOL     OW19465   0.129   8.774   5.044
 4873SOL    HW119466   0.086   8.716   5.107
 4873SOL    HW219467   0.098   8.861   5.066
 4874SOL     OW19468   0.739   8.104   4.758
 4874SOL    HW119469   0.804   8.114   4.688
 4874SOL    HW219470   0.686   8.184   4.753
 4875SOL     OW19471   1.759   8.400   5.570
 4875SOL    HW119472   1.697   8.383   5.500
 4875SOL    HW219473   1.705   8.429   5.643
 4876SOL     OW19474   0.316   7.557   4.372
 4876SOL    HW119475   0.316   7.636   4.318
 4876SOL    HW219476   0.248   7.501   4.332
 4877SOL     OW19477   1.553   7.758   4.095
 4877SOL    HW119478   1.629   7.751   4.152
 4877SOL    HW219479   1.539   7.852   4.085
 4878SOL     OW19480   1.041   8.185   4.742
 4878SOL    HW119481   1.007   8.218   4.825
 4878SOL    HW219482   1.006   8.095   4.736
 4879SOL     OW19483   1.010   8.995   5.462
 4879SOL    HW119484   0.969   9.050   5.395
 4879SOL    HW219485   1.040   8.918   5.415
 4880SOL     OW19486   1.836   8.959   5.260
 4880SOL    HW119487   1.826   8.982   5.168
 4880SOL    HW219488   1.897   9.024   5.295
 4881SOL     OW19489   0.445   8.311   5.554
 4881SOL    HW119490   0.504   8.362   5.609
 4881SOL    HW219491   0.431   8.366   5.477
 4882SOL     OW19492   1.530   7.640   3.840
 4882SOL    HW119493   1.444   7.599   3.851
 4882SOL    HW219494   1.544   7.688   3.921
 4883SOL     OW19495   1.277   8.101   3.730
 4883SOL    HW119496   1.195   8.130   3.770
 4883SOL    HW219497   1.306   8.175   3.677
 4884SOL     OW19498   1.087   8.802   4.574
 4884SOL    HW119499   1.082   8.732   4.509
 4884SOL    HW219500   1.150   8.864   4.536
 4885SOL     OW19501   0.338   8.253   4.749
 4885SOL    HW119502   0.423   8.277   4.715
 4885SOL    HW219503   0.349   8.253   4.844
 4886SOL     OW19504   0.388   7.911   4.771
 4886SOL    HW119505   0.302   7.923   4.731
 4886SOL    HW219506   0.450   7.928   4.700
 4887SOL     OW19507   1.202   7.840   5.432
 4887SOL    HW119508   1.132   7.882   5.482
 4887SOL    HW219509   1.157   7.782   5.371
 4888SOL     OW19510   0.652   8.972   4.615
 4888SOL    HW119511   0.581   9.011   4.665
 4888SOL    HW219512   0.609   8.915   4.551
 4889SOL     OW19513   0.916   8.268   4.972
 4889SOL    HW119514   0.911   8.356   5.010
 4889SOL    HW219515   0.825   8.243   4.955
 4890SOL     OW19516   0.084   7.953   4.839
 4890SOL    HW119517   0.051   8.030   4.793
 4890SOL    HW219518   0.089   7.981   4.931
 4891SOL     OW19519   0.235   7.945   5.440
 4891SOL    HW119520   0.308   7.927   5.381
 4891SOL    HW219521   0.198   8.028   5.407
 4892SOL     OW19522   1.368   8.432   5.332
 4892SOL    HW119523   1.427   8.501   5.363
 4892SOL    HW219524   1.334   8.466   5.249
 4893SOL     OW19525   1.605   8.025   4.927
 4893SOL    HW119526   1.521   8.044   4.970
 4893SOL    HW219527   1.642   8.111   4.907
 4894SOL     OW19528   0.307   8.981   5.484
 4894SOL    HW119529   0.254   9.048   5.526
 4894SOL    HW219530   0.319   9.014   5.394
 4895SOL     OW19531   0.745   7.913   4.956
 4895SOL    HW119532   0.675   7.851   4.936
 4895SOL    HW219533   0.737   7.981   4.889
 4896SOL     OW19534   0.889   9.137   5.251
 4896SOL    HW119535   0.823   9.091   5.199
 4896SOL    HW219536   0.908   9.216   5.202
 4897SOL     OW19537   0.045   8.557   5.204
 4897SOL    HW119538   0.073   8.542   5.294
 4897SOL    HW219539   0.093   8.490   5.154
 4898SOL     OW19540   1.335   8.445   4.868
 4898SOL    HW119541   1.412   8.485   4.908
 4898SOL    HW219542   1.274   8.518   4.856
 4899SOL     OW19543   1.332   8.304   3.963
 4899SOL    HW119544   1.275   8.262   4.028
 4899SOL    HW219545   1.272   8.333   3.894
 4900SOL     OW19546   0.053   8.668   4.800
 4900SOL    HW119547   0.095   8.707   4.877
 4900SOL    HW219548   0.039   8.742   4.741
 4901SOL     OW19549   0.692   9.095   5.459
 4901SOL    HW119550   0.618   9.153   5.441
 4901SOL    HW219551   0.759   9.123   5.396
 4902SOL     OW19552   1.775   7.648   4.237
 4902SOL    HW119553   1.818   7.632   4.153
 4902SOL    HW219554   1.733   7.565   4.259
 4903SOL     OW19555   1.384   9.023   4.192
 4903SOL    HW119556   1.444   9.058   4.126
 4903SOL    HW219557   1.339   9.100   4.227
 4904SOL     OW19558   0.147   9.173   5.606
 4904SOL    HW119559   0.071   9.137   5.652
 4904SOL    HW219560   0.175   9.247   5.661
 4905SOL     OW19561   1.312   8.314   4.364
 4905SOL    HW119562   1.332   8.375   4.436
 4905SOL    HW219563   1.317   8.367   4.285
 4906SOL     OW19564   0.845   8.772   5.172
 4906SOL    HW119565   0.822   8.770   5.265
 4906SOL    HW219566   0.797   8.848   5.138
 4907SOL     OW19567   0.755   9.076   3.861
 4907SOL    HW119568   0.729   9.100   3.772
 4907SOL    HW219569   0.680   9.100   3.915
 4908SOL     OW19570   1.605   9.180   5.151
 4908SOL    HW119571   1.606   9.180   5.055
 4908SOL    HW219572   1.591   9.272   5.174
 4909SOL     OW19573   1.813   7.623   4.718
 4909SOL    HW119574   1.828   7.544   4.665
 4909SOL    HW219575   1.721   7.644   4.704
 4910SOL     OW19576   0.231   7.824   4.499
 4910SOL    HW119577   0.241   7.903   4.446
 4910SOL    HW219578   0.137   7.812   4.508
 4911SOL     OW19579   1.209   9.043   3.732
 4911SOL    HW119580   1.205   8.960   3.780
 4911SOL    HW219581   1.133   9.041   3.674
 4912SOL     OW19582   0.834   8.489   5.118
 4912SOL    HW119583   0.743   8.477   5.089
 4912SOL    HW219584   0.841   8.583   5.134
 4913SOL     OW19585   1.483   9.095   3.763
 4913SOL    HW119586   1.389   9.082   3.752
 4913SOL    HW219587   1.501   9.178   3.719
 4914SOL     OW19588   1.080   8.580   4.419
 4914SOL    HW119589   1.025   8.519   4.468
 4914SOL    HW219590   1.102   8.532   4.339
 4915SOL     OW19591   1.013   7.682   4.595
 4915SOL    HW119592   0.976   7.761   4.633
 4915SOL    HW219593   1.006   7.616   4.663
 4916SOL     OW19594   0.585   8.892   4.139
 4916SOL    HW119595   0.654   8.851   4.088
 4916SOL    HW219596   0.576   8.980   4.102
 4917SOL     OW19597   1.756   7.851   5.102
 4917SOL    HW119598   1.684   7.890   5.052
 4917SOL    HW219599   1.835   7.887   5.063
 4918SOL     OW19600   0.165   8.470   5.449
 4918SOL    HW119601   0.171   8.556   5.489
 4918SOL    HW219602   0.250   8.458   5.405
 4919SOL     OW19603   0.665   7.657   5.240
 4919SOL    HW119604   0.744   7.710   5.237
 4919SOL    HW219605   0.667   7.617   5.327
 4920SOL     OW19606   0.086   7.831   3.736
 4920SOL    HW119607   9.992   7.852   3.745
 4920SOL    HW219608   0.122   7.907   3.692
 4921SOL     OW19609   1.459   8.287   5.062
 4921SOL    HW119610   1.401   8.324   4.995
 4921SOL    HW219611   1.500   8.363   5.103
 4922SOL     OW19612   0.052   7.659   3.994
 4922SOL    HW119613   0.078   7.751   4.005
 4922SOL    HW219614   0.129   7.618   3.955
 4923SOL     OW19615   1.182   8.791   3.846
 4923SOL    HW119616   1.087   8.800   3.846
 4923SOL    HW219617   1.206   8.783   3.938
 4924SOL     OW19618   0.697   8.033   5.425
 4924SOL    HW119619   0.759   8.096   5.463
 4924SOL    HW219620   0.656   7.992   5.501
 4925SOL     OW19621   1.538   8.636   5.403
 4925SOL    HW119622   1.506   8.661   5.490
 4925SOL    HW219623   1.488   8.691   5.342
 4926SOL     OW19624   1.714   8.299   4.884
 4926SOL    HW119625   1.658   8.315   4.961
 4926SOL    HW219626   1.704   8.378   4.831
 4927SOL     OW19627   1.164   7.701   4.297
 4927SOL    HW119628   1.225   7.659   4.237
 4927SOL    HW219629   1.207   7.783   4.321
 4928SOL     OW19630   0.628   8.117   4.381
 4928SOL    HW119631   0.666   8.204   4.388
 4928SOL    HW219632   0.563   8.125   4.311
 4929SOL     OW19633   1.808   7.665   5.310
 4929SOL    HW119634   1.788   7.718   5.233
 4929SOL    HW219635   1.722   7.648   5.350
 4930SOL     OW19636   1.708   8.447   5.172
 4930SOL    HW119637   1.741   8.527   5.213
 4930SOL    HW219638   1.660   8.478   5.095
 4931SOL     OW19639   0.914   8.856   3.823
 4931SOL    HW119640   0.873   8.793   3.882
 4931SOL    HW219641   0.865   8.937   3.835
 4932SOL     OW19642   0.925   8.417   4.589
 4932SOL    HW119643   0.971   8.364   4.654
 4932SOL    HW219644   0.873   8.478   4.640
 4933SOL     OW19645   1.183   8.409   3.725
 4933SOL    HW119646   1.125   8.471   3.681
 4933SOL    HW219647   1.124   8.341   3.760
 4934SOL     OW19648   1.901   8.998   4.548
 4934SOL    HW119649   1.811   9.019   4.571
 4934SOL    HW219650   1.954   9.033   4.620
 4935SOL     OW19651   0.198   8.727   5.540
 4935SOL    HW119652   0.108   8.761   5.538
 4935SOL    HW219653   0.252   8.803   5.515
 4936SOL     OW19654   0.205   8.631   4.349
 4936SOL    HW119655   0.208   8.607   4.442
 4936SOL    HW219656   0.247   8.558   4.304
 4937SOL     OW19657   0.710   8.817   5.416
 4937SOL    HW119658   0.630   8.780   5.378
 4937SOL    HW219659   0.691   8.910   5.428
 4938SOL     OW19660   1.861   7.583   4.991
 4938SOL    HW119661   1.782   7.599   5.042
 4938SOL    HW219662   1.836   7.602   4.901
 4939SOL     OW19663   0.536   7.793   4.334
 4939SOL    HW119664   0.530   7.789   4.239
 4939SOL    HW219665   0.457   7.839   4.361
 4940SOL     OW19666   0.397   7.983   5.032
 4940SOL    HW119667   0.421   8.074   5.021
 4940SOL    HW219668   0.397   7.947   4.943
 4941SOL     OW19669   0.839   9.023   4.401
 4941SOL    HW119670   0.801   9.101   4.359
 4941SOL    HW219671   0.765   8.980   4.443
 4942SOL     OW19672   1.404   7.636   4.950
 4942SOL    HW119673   1.334   7.572   4.965
 4942SOL    HW219674   1.359   7.719   4.939
 4943SOL     OW19675   1.030   7.454   4.753
 4943SOL    HW119676   1.029   7.478   4.845
 4943SOL    HW219677   1.104   7.394   4.745
 4944SOL     OW19678   0.807   8.738   4.045
 4944SOL    HW119679   0.789   8.649   4.075
 4944SOL    HW219680   0.867   8.774   4.111
 4945SOL     OW19681   0.678   9.005   5.133
 4945SOL    HW119682   0.619   9.062   5.182
 4945SOL    HW219683   0.640   8.998   5.046
 4946SOL     OW19684   1.280   7.532   3.889
 4946SOL    HW119685   1.212   7.564   3.828
 4946SOL    HW219686   1.247   7.447   3.918
 4947SOL     OW19687   1.293   7.924   4.417
 4947SOL    HW119688   1.220   7.982   4.438
 4947SOL    HW219689   1.306   7.871   4.495
 4948SOL     OW19690   1.538   7.647   4.705
 4948SOL    HW119691   1.505   7.654   4.795
 4948SOL    HW219692   1.470   7.689   4.652
 4949SOL     OW19693   0.933   9.142   4.065
 4949SOL    HW119694   0.868   9.127   3.996
 4949SOL    HW219695   0.890   9.201   4.127
 4950SOL     OW19696   0.235   8.074   5.706
 4950SOL    HW119697   0.210   8.167   5.705
 4950SOL    HW219698   0.252   8.053   5.615
 4951SOL     OW19699   0.164   7.733   6.609
 4951SOL    HW119700   0.207   7.695   6.685
 4951SOL    HW219701   0.072   7.738   6.634
 4952SOL     OW19702   9.954   7.798   6.293
 4952SOL    HW119703   9.938   7.862   6.363
 4952SOL    HW219704   9.891   7.822   6.224
 4953SOL     OW19705   0.570   8.741   6.796
 4953SOL    HW119706   0.491   8.749   6.743
 4953SOL    HW219707   0.588   8.830   6.826
 4954SOL     OW19708   1.563   8.970   6.309
 4954SOL    HW119709   1.511   8.961   6.389
 4954SOL    HW219710   1.498   8.985   6.240
 4955SOL     OW19711   1.144   8.140   6.291
 4955SOL    HW119712   1.182   8.223   6.264
 4955SOL    HW219713   1.094   8.161   6.370
 4956SOL     OW19714   0.728   8.583   6.627
 4956SOL    HW119715   0.673   8.614   6.699
 4956SOL    HW219716   0.767   8.662   6.591
 4957SOL     OW19717   0.704   8.434   6.247
 4957SOL    HW119718   0.773   8.444   6.312
 4957SOL    HW219719   0.633   8.491   6.277
 4958SOL     OW19720   0.340   8.834   6.637
 4958SOL    HW119721   0.266   8.831   6.577
 4958SOL    HW219722   0.400   8.897   6.597
 4959SOL     OW19723   1.459   8.949   6.962
 4959SOL    HW119724   1.508   9.030   6.975
 4959SOL    HW219725   1.381   8.959   7.016
 4960SOL     OW19726   0.315   7.740   7.084
 4960SOL    HW119727   0.332   7.827   7.049
 4960SOL    HW219728   0.362   7.737   7.167
 4961SOL     OW19729   1.576   7.867   6.331
 4961SOL    HW119730   1.509   7.871   6.263
 4961SOL    HW219731   1.556   7.940   6.389
 4962SOL     OW19732   0.259   9.110   6.045
 4962SOL    HW119733   0.214   9.191   6.067
 4962SOL    HW219734   0.321   9.135   5.977
 4963SOL     OW19735   1.070   8.732   7.211
 4963SOL    HW119736   1.157   8.697   7.228
 4963SOL    HW219737   1.015   8.655   7.198
 4964SOL     OW19738   0.145   8.880   6.136
 4964SOL    HW119739   0.190   8.962   6.114
 4964SOL    HW219740   0.053   8.899   6.116
 4965SOL     OW19741   0.259   8.564   6.466
 4965SOL    HW119742   0.282   8.585   6.556
 4965SOL    HW219743   0.212   8.642   6.435
 4966SOL     OW19744   0.591   9.212   7.068
 4966SOL    HW119745   0.500   9.223   7.096
 4966SOL    HW219746   0.626   9.301   7.062
 4967SOL     OW19747   0.604   8.445   5.744
 4967SOL    HW119748   0.645   8.491   5.671
 4967SOL    HW219749   0.639   8.488   5.822
 4968SOL     OW19750   1.519   7.561   7.080
 4968SOL    HW119751   1.433   7.598   7.062
 4968SOL    HW219752   1.543   7.597   7.166
 4969SOL     OW19753   0.150   8.071   6.216
 4969SOL    HW119754   0.097   8.067   6.136
 4969SOL    HW219755   0.104   8.134   6.271
 4970SOL     OW19756   1.862   9.163   5.905
 4970SOL    HW119757   1.935   9.154   5.967
 4970SOL    HW219758   1.860   9.257   5.884
 4971SOL     OW19759   9.936   9.061   5.743
 4971SOL    HW119760   9.944   8.973   5.779
 4971SOL    HW219761   9.850   9.061   5.700
 4972SOL     OW19762   1.702   8.366   6.196
 4972SOL    HW119763   1.755   8.319   6.131
 4972SOL    HW219764   1.668   8.442   6.149
 4973SOL     OW19765   1.654   8.578   6.019
 4973SOL    HW119766   1.745   8.577   5.988
 4973SOL    HW219767   1.655   8.639   6.093
 4974SOL     OW19768   0.113   8.283   7.226
 4974SOL    HW119769   0.173   8.344   7.184
 4974SOL    HW219770   0.040   8.274   7.164
 4975SOL     OW19771   0.631   8.830   6.343
 4975SOL    HW119772   0.582   8.748   6.333
 4975SOL    HW219773   0.626   8.871   6.257
 4976SOL     OW19774   1.281   8.659   6.997
 4976SOL    HW119775   1.290   8.592   6.930
 4976SOL    HW219776   1.349   8.639   7.062
 4977SOL     OW19777   0.825   7.455   6.101
 4977SOL    HW119778   0.869   7.534   6.068
 4977SOL    HW219779   0.732   7.479   6.101
 4978SOL     OW19780   0.158   8.355   6.864
 4978SOL    HW119781   0.250   8.329   6.858
 4978SOL    HW219782   0.139   8.396   6.779
 4979SOL     OW19783   1.573   8.452   5.782
 4979SOL    HW119784   1.505   8.389   5.806
 4979SOL    HW219785   1.595   8.496   5.864
 4980SOL     OW19786   1.220   9.298   7.218
 4980SOL    HW119787   1.198   9.359   7.148
 4980SOL    HW219788   1.223   9.212   7.175
 4981SOL     OW19789   0.398   7.735   7.350
 4981SOL    HW119790   0.439   7.821   7.361
 4981SOL    HW219791   0.310   7.746   7.387
 4982SOL     OW19792   1.446   8.869   6.547
 4982SOL    HW119793   1.377   8.888   6.609
 4982SOL    HW219794   1.426   8.781   6.515
 4983SOL     OW19795   1.678   9.212   6.167
 4983SOL    HW119796   1.642   9.184   6.083
 4983SOL    HW219797   1.626   9.165   6.232
 4984SOL     OW19798   0.672   8.202   5.868
 4984SOL    HW119799   0.634   8.268   5.811
 4984SOL    HW219800   0.746   8.247   5.911
 4985SOL     OW19801   1.284   7.851   6.518
 4985SOL    HW119802   1.192   7.824   6.516
 4985SOL    HW219803   1.326   7.787   6.575
 4986SOL     OW19804   1.590   9.109   5.919
 4986SOL    HW119805   1.684   9.119   5.905
 4986SOL    HW219806   1.553   9.107   5.830
 4987SOL     OW19807   0.856   7.938   7.080
 4987SOL    HW119808   0.835   7.952   7.173
 4987SOL    HW219809   0.787   7.984   7.032
 4988SOL     OW19810   1.440   7.939   7.311
 4988SOL    HW119811   1.431   7.968   7.402
 4988SOL    HW219812   1.481   8.013   7.266
 4989SOL     OW19813   0.979   7.777   6.895
 4989SOL    HW119814   0.959   7.833   6.969
 4989SOL    HW219815   0.909   7.795   6.832
 4990SOL     OW19816   1.067   8.117   6.024
 4990SOL    HW119817   1.087   8.119   6.118
 4990SOL    HW219818   0.983   8.073   6.018
 4991SOL     OW19819   0.160   8.306   6.393
 4991SOL    HW119820   0.218   8.265   6.457
 4991SOL    HW219821   0.180   8.399   6.399
 4992SOL     OW19822   0.873   7.799   5.787
 4992SOL    HW119823   0.918   7.847   5.717
 4992SOL    HW219824   0.826   7.729   5.742
 4993SOL     OW19825   1.708   8.136   7.469
 4993SOL    HW119826   1.723   8.229   7.480
 4993SOL    HW219827   1.663   8.128   7.385
 4994SOL     OW19828   1.373   8.576   6.075
 4994SOL    HW119829   1.461   8.598   6.043
 4994SOL    HW219830   1.321   8.654   6.055
 4995SOL     OW19831   0.522   7.612   6.538
 4995SOL    HW119832   0.534   7.632   6.631
 4995SOL    HW219833   0.501   7.697   6.498
 4996SOL     OW19834   0.986   8.917   6.045
 4996SOL    HW119835   0.969   8.984   5.979
 4996SOL    HW219836   0.950   8.953   6.126
 4997SOL     OW19837   0.311   9.197   6.485
 4997SOL    HW119838   0.377   9.128   6.486
 4997SOL    HW219839   0.338   9.255   6.414
 4998SOL     OW19840   1.786   8.405   6.467
 4998SOL    HW119841   1.747   8.416   6.381
 4998SOL    HW219842   1.734   8.462   6.525
 4999SOL     OW19843   1.211   8.983   7.077
 4999SOL    HW119844   1.181   8.899   7.112
 4999SOL    HW219845   1.130   9.028   7.052
 5000SOL     OW19846   0.373   8.345   5.870
 5000SOL    HW119847   0.445   8.380   5.818
 5000SOL    HW219848   0.299   8.341   5.809
 5001SOL     OW19849   1.497   8.192   6.253
 5001SOL    HW119850   1.492   8.158   6.342
 5001SOL    HW219851   1.571   8.252   6.254
 5002SOL     OW19852   0.478   8.701   7.337
 5002SOL    HW119853   0.413   8.734   7.275
 5002SOL    HW219854   0.465   8.606   7.337
 5003SOL     OW19855   1.160   9.187   5.818
 5003SOL    HW119856   1.068   9.173   5.843
 5003SOL    HW219857   1.176   9.123   5.748
 5004SOL     OW19858   1.650   8.845   5.705
 5004SOL    HW119859   1.614   8.932   5.689
 5004SOL    HW219860   1.579   8.785   5.684
 5005SOL     OW19861   0.453   9.223   5.884
 5005SOL    HW119862   0.504   9.268   5.951
 5005SOL    HW219863   0.519   9.184   5.826
 5006SOL     OW19864   1.392   7.560   6.021
 5006SOL    HW119865   1.361   7.547   5.932
 5006SOL    HW219866   1.460   7.627   6.013
 5007SOL     OW19867   0.284   9.251   6.780
 5007SOL    HW119868   0.355   9.224   6.721
 5007SOL    HW219869   0.205   9.245   6.726
 5008SOL     OW19870   0.932   9.144   6.463
 5008SOL    HW119871   1.015   9.098   6.465
 5008SOL    HW219872   0.887   9.110   6.386
 5009SOL     OW19873   0.381   8.161   6.082
 5009SOL    HW119874   0.388   8.219   6.006
 5009SOL    HW219875   0.293   8.178   6.117
 5010SOL     OW19876   1.551   7.690   7.324
 5010SOL    HW119877   1.547   7.677   7.419
 5010SOL    HW219878   1.507   7.774   7.309
 5011SOL     OW19879   0.539   7.428   5.699
 5011SOL    HW119880   0.611   7.491   5.703
 5011SOL    HW219881   0.519   7.420   5.605
 5012SOL     OW19882   0.766   7.679   7.331
 5012SOL    HW119883   0.858   7.653   7.343
 5012SOL    HW219884   0.767   7.775   7.338
 5013SOL     OW19885   0.868   8.968   6.789
 5013SOL    HW119886   0.845   8.940   6.700
 5013SOL    HW219887   0.932   8.903   6.819
 5014SOL     OW19888   1.363   8.055   6.961
 5014SOL    HW119889   1.271   8.052   6.985
 5014SOL    HW219890   1.390   8.145   6.980
 5015SOL     OW19891   0.825   8.831   6.543
 5015SOL    HW119892   0.910   8.828   6.500
 5015SOL    HW219893   0.762   8.840   6.472
 5016SOL     OW19894   0.929   7.958   6.481
 5016SOL    HW119895   0.907   7.944   6.389
 5016SOL    HW219896   0.959   7.872   6.512
 5017SOL     OW19897   0.559   7.535   6.072
 5017SOL    HW119898   0.482   7.549   6.127
 5017SOL    HW219899   0.557   7.608   6.010
 5018SOL     OW19900   1.442   8.673   5.654
 5018SOL    HW119901   1.461   8.592   5.700
 5018SOL    HW219902   1.353   8.696   5.681
 5019SOL     OW19903   0.277   7.502   5.731
 5019SOL    HW119904   0.288   7.580   5.677
 5019SOL    HW219905   0.366   7.473   5.749
 5020SOL     OW19906   0.950   7.685   6.026
 5020SOL    HW119907   0.915   7.724   5.946
 5020SOL    HW219908   1.041   7.715   6.029
 5021SOL     OW19909   1.097   8.060   6.996
 5021SOL    HW119910   1.015   8.036   7.040
 5021SOL    HW219911   1.074   8.136   6.943
 5022SOL     OW19912   1.194   9.052   6.384
 5022SOL    HW119913   1.221   9.109   6.312
 5022SOL    HW219914   1.224   9.097   6.463
 5023SOL     OW19915   0.485   8.595   6.300
 5023SOL    HW119916   0.409   8.578   6.356
 5023SOL    HW219917   0.451   8.588   6.211
 5024SOL     OW19918   1.266   9.254   6.204
 5024SOL    HW119919   1.312   9.318   6.149
 5024SOL    HW219920   1.192   9.303   6.241
 5025SOL     OW19921   1.017   7.957   5.610
 5025SOL    HW119922   0.978   8.040   5.585
 5025SOL    HW219923   1.079   7.979   5.679
 5026SOL     OW19924   0.549   7.660   6.810
 5026SOL    HW119925   0.581   7.641   6.898
 5026SOL    HW219926   0.454   7.655   6.817
 5027SOL     OW19927   0.878   7.880   6.223
 5027SOL    HW119928   0.838   7.942   6.161
 5027SOL    HW219929   0.898   7.803   6.170
 5028SOL     OW19930   1.038   7.489   6.313
 5028SOL    HW119931   0.971   7.499   6.246
 5028SOL    HW219932   1.005   7.421   6.371
 5029SOL     OW19933   1.430   8.614   6.438
 5029SOL    HW119934   1.342   8.588   6.410
 5029SOL    HW219935   1.478   8.627   6.355
 5030SOL     OW19936   1.464   8.061   6.499
 5030SOL    HW119937   1.392   7.999   6.509
 5030SOL    HW219938   1.497   8.074   6.588
 5031SOL     OW19939   1.833   8.230   5.978
 5031SOL    HW119940   1.892   8.176   6.030
 5031SOL    HW219941   1.841   8.194   5.889
 5032SOL     OW19942   0.452   8.921   5.730
 5032SOL    HW119943   0.395   8.858   5.773
 5032SOL    HW219944   0.409   8.939   5.646
 5033SOL     OW19945   1.651   8.709   6.259
 5033SOL    HW119946   1.742   8.706   6.288
 5033SOL    HW219947   1.624   8.799   6.274
 5034SOL     OW19948   1.415   8.047   5.687
 5034SOL    HW119949   1.340   8.005   5.729
 5034SOL    HW219950   1.429   8.127   5.738
 5035SOL     OW19951   0.565   7.725   5.862
 5035SOL    HW119952   0.626   7.686   5.799
 5035SOL    HW219953   0.552   7.814   5.831
 5036SOL     OW19954   1.729   8.680   7.121
 5036SOL    HW119955   1.817   8.646   7.109
 5036SOL    HW219956   1.741   8.768   7.155
 5037SOL     OW19957   1.049   8.781   6.895
 5037SOL    HW119958   0.969   8.755   6.941
 5037SOL    HW219959   1.120   8.740   6.945
 5038SOL     OW19960   1.612   9.076   7.253
 5038SOL    HW119961   1.606   9.120   7.168
 5038SOL    HW219962   1.691   9.022   7.247
 5039SOL     OW19963   1.123   8.646   6.664
 5039SOL    HW119964   1.076   8.692   6.734
 5039SOL    HW219965   1.106   8.699   6.586
 5040SOL     OW19966   1.615   8.551   6.644
 5040SOL    HW119967   1.611   8.621   6.709
 5040SOL    HW219968   1.545   8.573   6.582
 5041SOL     OW19969   1.032   7.497   6.939
 5041SOL    HW119970   1.042   7.488   6.844
 5041SOL    HW219971   1.011   7.590   6.952
 5042SOL     OW19972   0.735   8.520   5.980
 5042SOL    HW119973   0.709   8.500   6.070
 5042SOL    HW219974   0.810   8.463   5.963
 5043SOL     OW19975   0.417   8.244   6.851
 5043SOL    HW119976   0.475   8.274   6.921
 5043SOL    HW219977   0.395   8.154   6.876
 5044SOL     OW19978   1.257   7.810   6.862
 5044SOL    HW119979   1.288   7.897   6.886
 5044SOL    HW219980   1.162   7.818   6.860
 5045SOL     OW19981   0.388   8.566   6.047
 5045SOL    HW119982   0.351   8.636   5.992
 5045SOL    HW219983   0.377   8.487   5.994
 5046SOL     OW19984   0.520   7.971   6.367
 5046SOL    HW119985   0.574   8.035   6.319
 5046SOL    HW219986   0.551   7.976   6.457
 5047SOL     OW19987   1.239   8.811   6.016
 5047SOL    HW119988   1.293   8.886   6.042
 5047SOL    HW219989   1.149   8.840   6.032
 5048SOL     OW19990   1.273   8.923   6.757
 5048SOL    HW119991   1.336   8.926   6.829
 5048SOL    HW219992   1.196   8.880   6.795
 5049SOL     OW19993   1.592   8.028   6.046
 5049SOL    HW119994   1.539   8.074   6.112
 5049SOL    HW219995   1.643   8.098   6.004
 5050SOL     OW19996   0.338   8.934   6.897
 5050SOL    HW119997   0.328   8.894   6.810
 5050SOL    HW219998   0.429   8.963   6.899
 5051SOL     OW19999   0.450   8.037   7.222
 5051SOL    HW120000   0.466   8.065   7.132
 5051SOL    HW220001   0.488   8.108   7.275
 5052SOL     OW20002   1.573   8.172   7.230
 5052SOL    HW120003   1.497   8.228   7.247
 5052SOL    HW220004   1.630   8.225   7.174
 5053SOL     OW20005   1.032   7.622   7.387
 5053SOL    HW120006   1.087   7.695   7.357
 5053SOL    HW220007   1.071   7.544   7.348
 5054SOL     OW20008   0.479   7.468   7.344
 5054SOL    HW120009   0.431   7.430   7.271
 5054SOL    HW220010   0.452   7.560   7.346
 5055SOL     OW20011   0.626   8.318   6.631
 5055SOL    HW120012   0.661   8.406   6.620
 5055SOL    HW220013   0.588   8.318   6.719
 5056SOL     OW20014   1.306   8.282   6.583
 5056SOL    HW120015   1.215   8.264   6.561
 5056SOL    HW220016   1.357   8.219   6.533
 5057SOL     OW20017   1.192   7.967   5.831
 5057SOL    HW120018   1.200   7.889   5.885
 5057SOL    HW220019   1.156   8.034   5.889
 5058SOL     OW20020   0.279   7.621   6.837
 5058SOL    HW120021   0.273   7.665   6.922
 5058SOL    HW220022   0.255   7.530   6.855
 5059SOL     OW20023   0.682   8.047   6.589
 5059SOL    HW120024   0.767   8.036   6.546
 5059SOL    HW220025   0.671   8.142   6.597
 5060SOL     OW20026   1.716   8.414   7.457
 5060SOL    HW120027   1.684   8.463   7.382
 5060SOL    HW220028   1.651   8.429   7.526
 5061SOL     OW20029   0.321   7.543   6.231
 5061SOL    HW120030   0.294   7.630   6.261
 5061SOL    HW220031   0.321   7.490   6.311
 5062SOL     OW20032   1.576   7.761   5.972
 5062SOL    HW120033   1.654   7.733   6.020
 5062SOL    HW220034   1.571   7.855   5.987
 5063SOL     OW20035   1.037   8.202   6.552
 5063SOL    HW120036   1.033   8.218   6.646
 5063SOL    HW220037   0.996   8.117   6.540
 5064SOL     OW20038   1.000   8.989   7.293
 5064SOL    HW120039   0.968   9.042   7.221
 5064SOL    HW220040   1.007   8.901   7.257
 5065SOL     OW20041   1.845   8.924   7.187
 5065SOL    HW120042   1.861   8.964   7.102
 5065SOL    HW220043   1.925   8.940   7.237
 5066SOL     OW20044   1.570   7.593   5.740
 5066SOL    HW120045   1.475   7.585   5.737
 5066SOL    HW220046   1.586   7.666   5.801
 5067SOL     OW20047   1.283   8.294   5.563
 5067SOL    HW120048   1.312   8.206   5.540
 5067SOL    HW220049   1.299   8.346   5.485
 5068SOL     OW20050   1.077   8.808   6.439
 5068SOL    HW120051   1.108   8.737   6.383
 5068SOL    HW220052   1.125   8.886   6.408
 5069SOL     OW20053   0.356   8.212   6.578
 5069SOL    HW120054   0.436   8.243   6.535
 5069SOL    HW220055   0.372   8.224   6.671
 5070SOL     OW20056   0.359   7.932   6.645
 5070SOL    HW120057   0.278   7.884   6.628
 5070SOL    HW220058   0.346   8.017   6.601
 5071SOL     OW20059   1.185   7.833   7.302
 5071SOL    HW120060   1.131   7.899   7.345
 5071SOL    HW220061   1.272   7.874   7.297
 5072SOL     OW20062   1.265   7.667   7.097
 5072SOL    HW120063   1.230   7.729   7.161
 5072SOL    HW220064   1.254   7.711   7.013
 5073SOL     OW20065   9.960   8.786   5.805
 5073SOL    HW120066   9.950   8.790   5.710
 5073SOL    HW220067   9.971   8.693   5.823
 5074SOL     OW20068   0.071   9.201   6.622
 5074SOL    HW120069   9.996   9.151   6.589
 5074SOL    HW220070   0.135   9.199   6.551
 5075SOL     OW20071   0.513   9.010   6.519
 5075SOL    HW120072   0.571   9.085   6.529
 5075SOL    HW220073   0.558   8.953   6.457
 5076SOL     OW20074   1.057   8.277   6.820
 5076SOL    HW120075   1.132   8.336   6.816
 5076SOL    HW220076   0.986   8.331   6.855
 5077SOL     OW20077   0.056   8.029   6.700
 5077SOL    HW120078   0.102   8.108   6.728
 5077SOL    HW220079   0.023   7.990   6.781
 5078SOL     OW20080   0.196   8.032   7.314
 5078SOL    HW120081   0.286   8.028   7.281
 5078SOL    HW220082   0.157   8.107   7.268
 5079SOL     OW20083   1.366   8.351   7.256
 5079SOL    HW120084   1.394   8.443   7.257
 5079SOL    HW220085   1.346   8.333   7.164
 5080SOL     OW20086   0.825   7.997   5.976
 5080SOL    HW120087   0.830   7.930   5.907
 5080SOL    HW220088   0.758   8.058   5.945
 5081SOL     OW20089   1.551   8.071   6.758
 5081SOL    HW120090   1.484   8.061   6.825
 5081SOL    HW220091   1.624   8.017   6.789
 5082SOL     OW20092   0.162   9.052   7.242
 5082SOL    HW120093   0.122   9.094   7.318
 5082SOL    HW220094   0.186   8.965   7.273
 5083SOL     OW20095   0.734   7.866   6.794
 5083SOL    HW120096   0.660   7.805   6.791
 5083SOL    HW220097   0.711   7.935   6.732
 5084SOL     OW20098   0.961   9.101   7.027
 5084SOL    HW120099   0.923   9.059   6.950
 5084SOL    HW220100   0.941   9.194   7.017
 5085SOL     OW20101   0.506   7.986   5.788
 5085SOL    HW120102   0.559   8.059   5.820
 5085SOL    HW220103   0.421   8.026   5.770
 5086SOL     OW20104   0.121   8.590   7.020
 5086SOL    HW120105   0.132   8.507   6.973
 5086SOL    HW220106   0.040   8.627   6.985
 5087SOL     OW20107   1.274   8.460   6.786
 5087SOL    HW120108   1.302   8.405   6.713
 5087SOL    HW220109   1.222   8.529   6.746
 5088SOL     OW20110   1.361   8.284   5.834
 5088SOL    HW120111   1.293   8.296   5.901
 5088SOL    HW220112   1.316   8.301   5.751
 5089SOL     OW20113   1.766   9.159   6.746
 5089SOL    HW120114   1.836   9.177   6.683
 5089SOL    HW220115   1.725   9.079   6.714
 5090SOL     OW20116   1.247   9.168   6.630
 5090SOL    HW120117   1.336   9.198   6.614
 5090SOL    HW220118   1.257   9.087   6.680
 5091SOL     OW20119   0.668   9.100   7.315
 5091SOL    HW120120   0.628   9.178   7.355
 5091SOL    HW220121   0.666   9.118   7.221
 5092SOL     OW20122   1.787   7.617   6.087
 5092SOL    HW120123   1.833   7.599   6.005
 5092SOL    HW220124   1.747   7.533   6.111
 5093SOL     OW20125   1.394   9.029   6.098
 5093SOL    HW120126   1.452   9.057   6.027
 5093SOL    HW220127   1.342   9.106   6.119
 5094SOL     OW20128   0.090   9.189   7.480
 5094SOL    HW120129   0.052   9.119   7.532
 5094SOL    HW220130   0.170   9.214   7.526
 5095SOL     OW20131   1.279   8.357   6.200
 5095SOL    HW120132   1.358   8.303   6.209
 5095SOL    HW220133   1.308   8.434   6.151
 5096SOL     OW20134   0.800   8.719   7.001
 5096SOL    HW120135   0.778   8.744   7.091
 5096SOL    HW220136   0.716   8.722   6.955
 5097SOL     OW20137   0.664   9.097   5.732
 5097SOL    HW120138   0.687   9.095   5.640
 5097SOL    HW220139   0.600   9.027   5.743
 5098SOL     OW20140   1.607   9.183   6.988
 5098SOL    HW120141   1.661   9.183   6.910
 5098SOL    HW220142   1.582   9.274   7.001
 5099SOL     OW20143   1.844   7.614   6.594
 5099SOL    HW120144   1.873   7.528   6.564
 5099SOL    HW220145   1.759   7.626   6.552
 5100SOL     OW20146   0.224   7.780   6.342
 5100SOL    HW120147   0.134   7.789   6.312
 5100SOL    HW220148   0.216   7.764   6.436
 5101SOL     OW20149   1.236   9.006   5.621
 5101SOL    HW120150   1.227   8.916   5.650
 5101SOL    HW220151   1.164   9.019   5.559
 5102SOL     OW20152   0.889   8.460   6.928
 5102SOL    HW120153   0.861   8.550   6.944
 5102SOL    HW220154   0.881   8.417   7.013
 5103SOL     OW20155   0.923   8.332   5.921
 5103SOL    HW120156   0.971   8.361   5.843
 5103SOL    HW220157   0.983   8.270   5.963
 5104SOL     OW20158   1.499   9.087   5.652
 5104SOL    HW120159   1.409   9.060   5.635
 5104SOL    HW220160   1.540   9.090   5.566
 5105SOL     OW20161   0.310   8.767   7.126
 5105SOL    HW120162   0.324   8.822   7.049
 5105SOL    HW220163   0.243   8.704   7.099
 5106SOL     OW20164   1.616   8.744   6.858
 5106SOL    HW120165   1.658   8.716   6.940
 5106SOL    HW220166   1.552   8.809   6.886
 5107SOL     OW20167   1.147   8.556   6.347
 5107SOL    HW120168   1.062   8.525   6.380
 5107SOL    HW220169   1.175   8.487   6.288
 5108SOL     OW20170   1.052   7.700   6.516
 5108SOL    HW120171   1.047   7.649   6.435
 5108SOL    HW220172   1.047   7.634   6.585
 5109SOL     OW20173   0.615   8.955   6.095
 5109SOL    HW120174   0.654   8.902   6.025
 5109SOL    HW220175   0.535   8.990   6.056
 5110SOL     OW20176   0.242   8.763   5.900
 5110SOL    HW120177   0.177   8.800   5.840
 5110SOL    HW220178   0.222   8.803   5.984
 5111SOL     OW20179   0.688   7.639   7.060
 5111SOL    HW120180   0.735   7.715   7.026
 5111SOL    HW220181   0.696   7.647   7.155
 5112SOL     OW20182   9.950   7.828   5.502
 5112SOL    HW120183   9.903   7.873   5.573
 5112SOL    HW220184   0.035   7.872   5.498
 5113SOL     OW20185   1.409   8.324   6.981
 5113SOL    HW120186   1.347   8.371   6.924
 5113SOL    HW220187   1.494   8.339   6.940
 5114SOL     OW20188   0.032   7.611   5.829
 5114SOL    HW120189   0.079   7.694   5.817
 5114SOL    HW220190   0.101   7.546   5.840
 5115SOL     OW20191   1.197   8.755   5.744
 5115SOL    HW120192   1.105   8.770   5.725
 5115SOL    HW220193   1.206   8.772   5.838
 5116SOL     OW20194   0.580   8.285   7.069
 5116SOL    HW120195   0.546   8.293   7.158
 5116SOL    HW220196   0.674   8.300   7.077
 5117SOL     OW20197   1.508   9.238   6.571
 5117SOL    HW120198   1.521   9.309   6.509
 5117SOL    HW220199   1.569   9.257   6.642
 5118SOL     OW20200   0.823   7.946   7.357
 5118SOL    HW120201   0.756   8.013   7.375
 5118SOL    HW220202   0.903   7.982   7.395
 5119SOL     OW20203   1.468   8.606   7.211
 5119SOL    HW120204   1.448   8.644   7.296
 5119SOL    HW220205   1.551   8.648   7.185
 5120SOL     OW20206   0.344   9.252   7.188
 5120SOL    HW120207   0.283   9.325   7.182
 5120SOL    HW220208   0.290   9.176   7.210
 5121SOL     OW20209   1.637   8.339   6.822
 5121SOL    HW120210   1.611   8.261   6.772
 5121SOL    HW220211   1.635   8.409   6.757
 5122SOL     OW20212   1.210   7.772   6.032
 5122SOL    HW120213   1.271   7.698   6.035
 5122SOL    HW220214   1.237   7.828   6.105
 5123SOL     OW20215   0.626   8.169   6.214
 5123SOL    HW120216   0.659   8.259   6.223
 5123SOL    HW220217   0.551   8.177   6.156
 5124SOL     OW20218   1.791   7.753   7.195
 5124SOL    HW120219   1.838   7.779   7.275
 5124SOL    HW220220   1.704   7.728   7.226
 5125SOL     OW20221   1.719   8.365   7.082
 5125SOL    HW120222   1.704   8.458   7.101
 5125SOL    HW220223   1.704   8.356   6.988
 5126SOL     OW20224   0.943   8.839   5.693
 5126SOL    HW120225   0.856   8.847   5.733
 5126SOL    HW220226   0.939   8.897   5.617
 5127SOL     OW20227   0.669   9.233   6.528
 5127SOL    HW120228   0.651   9.323   6.499
 5127SOL    HW220229   0.762   9.219   6.508
 5128SOL     OW20230   0.904   8.443   6.451
 5128SOL    HW120231   0.940   8.365   6.494
 5128SOL    HW220232   0.854   8.487   6.520
 5129SOL     OW20233   1.059   8.390   5.690
 5129SOL    HW120234   1.036   8.469   5.641
 5129SOL    HW220235   1.135   8.355   5.644
 5130SOL     OW20236   1.827   8.984   6.404
 5130SOL    HW120237   1.747   8.999   6.353
 5130SOL    HW220238   1.796   8.949   6.488
 5131SOL     OW20239   0.157   8.823   7.438
 5131SOL    HW120240   0.066   8.819   7.406
 5131SOL    HW220241   0.162   8.753   7.503
 5132SOL     OW20242   0.019   8.602   6.136
 5132SOL    HW120243   9.940   8.598   6.189
 5132SOL    HW220244   0.060   8.685   6.160
 5133SOL     OW20245   0.717   8.819   7.268
 5133SOL    HW120246   0.634   8.777   7.288
 5133SOL    HW220247   0.701   8.912   7.280
 5134SOL     OW20248   1.826   7.637   6.870
 5134SOL    HW120249   1.770   7.561   6.889
 5134SOL    HW220250   1.834   7.638   6.774
 5135SOL     OW20251   1.699   8.910   6.644
 5135SOL    HW120252   1.611   8.905   6.606
 5135SOL    HW220253   1.697   8.849   6.717
 5136SOL     OW20254   0.340   7.982   6.916
 5136SOL    HW120255   0.248   7.957   6.928
 5136SOL    HW220256   0.361   7.955   6.826
 5137SOL     OW20257   0.831   9.080   6.218
 5137SOL    HW120258   0.839   9.165   6.174
 5137SOL    HW220259   0.751   9.043   6.183
 5138SOL     OW20260   1.388   7.653   6.682
 5138SOL    HW120261   1.344   7.569   6.692
 5138SOL    HW220262   1.352   7.707   6.753
 5139SOL     OW20263   1.063   7.457   6.665
 5139SOL    HW120264   0.999   7.413   6.610
 5139SOL    HW220265   1.142   7.404   6.658
 5140SOL     OW20266   0.760   8.792   5.926
 5140SOL    HW120267   0.748   8.698   5.939
 5140SOL    HW220268   0.847   8.810   5.960
 5141SOL     OW20269   0.610   8.999   6.892
 5141SOL    HW120270   0.608   9.075   6.950
 5141SOL    HW220271   0.698   9.001   6.853
 5142SOL     OW20272   1.302   7.551   5.758
 5142SOL    HW120273   1.251   7.610   5.702
 5142SOL    HW220274   1.249   7.472   5.765
 5143SOL     OW20275   1.300   7.913   6.250
 5143SOL    HW120276   1.252   7.996   6.248
 5143SOL    HW220277   1.292   7.882   6.340
 5144SOL     OW20278   1.591   7.637   6.494
 5144SOL    HW120279   1.520   7.656   6.556
 5144SOL    HW220280   1.584   7.707   6.429
 5145SOL     OW20281   0.077   8.534   5.877
 5145SOL    HW120282   0.150   8.596   5.875
 5145SOL    HW220283   0.047   8.535   5.967
 5146SOL     OW20284   0.895   9.132   5.896
 5146SOL    HW120285   0.817   9.121   5.841
 5146SOL    HW220286   0.875   9.208   5.951
 5147SOL     OW20287   0.199   7.751   8.509
 5147SOL    HW120288   0.232   7.699   8.582
 5147SOL    HW220289   0.115   7.784   8.539
 5148SOL     OW20290   0.029   7.851   8.090
 5148SOL    HW120291   9.937   7.826   8.076
 5148SOL    HW220292   0.077   7.805   8.021
 5149SOL     OW20293   0.533   8.709   8.712
 5149SOL    HW120294   0.487   8.717   8.628
 5149SOL    HW220295   0.567   8.797   8.728
 5150SOL     OW20296   1.535   8.974   8.104
 5150SOL    HW120297   1.500   8.963   8.192
 5150SOL    HW220298   1.457   8.985   8.049
 5151SOL     OW20299   1.168   8.129   8.130
 5151SOL    HW120300   1.219   8.188   8.074
 5151SOL    HW220301   1.112   8.187   8.181
 5152SOL     OW20302   1.839   7.984   7.651
 5152SOL    HW120303   1.786   8.036   7.591
 5152SOL    HW220304   1.775   7.940   7.707
 5153SOL     OW20305   0.905   8.203   9.294
 5153SOL    HW120306   0.949   8.259   9.358
 5153SOL    HW220307   0.898   8.257   9.215
 5154SOL     OW20308   0.696   8.360   8.138
 5154SOL    HW120309   0.761   8.380   8.206
 5154SOL    HW220310   0.620   8.412   8.162
 5155SOL     OW20311   0.383   8.841   8.483
 5155SOL    HW120312   0.318   8.834   8.413
 5155SOL    HW220313   0.451   8.897   8.447
 5156SOL     OW20314   1.474   8.926   8.810
 5156SOL    HW120315   1.534   8.999   8.800
 5156SOL    HW220316   1.410   8.957   8.874
 5157SOL     OW20317   0.493   7.843   8.982
 5157SOL    HW120318   0.544   7.921   9.005
 5157SOL    HW220319   0.540   7.770   9.023
 5158SOL     OW20320   1.589   7.835   8.186
 5158SOL    HW120321   1.496   7.849   8.172
 5158SOL    HW220322   1.613   7.896   8.255
 5159SOL     OW20323   0.268   9.079   7.857
 5159SOL    HW120324   0.215   9.157   7.875
 5159SOL    HW220325   0.352   9.113   7.826
 5160SOL     OW20326   1.190   8.795   9.125
 5160SOL    HW120327   1.164   8.727   9.188
 5160SOL    HW220328   1.213   8.746   9.046
 5161SOL     OW20329   0.184   8.866   8.001
 5161SOL    HW120330   0.209   8.948   7.957
 5161SOL    HW220331   0.098   8.846   7.965
 5162SOL     OW20332   0.228   8.542   8.355
 5162SOL    HW120333   0.236   8.455   8.394
 5162SOL    HW220334   0.165   8.587   8.412
 5163SOL     OW20335   0.574   9.237   8.854
 5163SOL    HW120336   0.487   9.228   8.892
 5163SOL    HW220337   0.604   9.323   8.885
 5164SOL     OW20338   1.596   7.598   8.880
 5164SOL    HW120339   1.533   7.544   8.832
 5164SOL    HW220340   1.556   7.610   8.966
 5165SOL     OW20341   0.132   8.085   7.980
 5165SOL    HW120342   0.095   8.006   8.021
 5165SOL    HW220343   0.123   8.153   8.047
 5166SOL     OW20344   1.818   9.173   7.753
 5166SOL    HW120345   1.805   9.171   7.847
 5166SOL    HW220346   1.837   9.264   7.732
 5167SOL     OW20347   9.955   8.979   7.611
 5167SOL    HW120348   9.916   8.937   7.534
 5167SOL    HW220349   0.023   8.919   7.639
 5168SOL     OW20350   1.735   8.319   7.976
 5168SOL    HW120351   1.748   8.347   8.067
 5168SOL    HW220352   1.689   8.392   7.935
 5169SOL     OW20353   1.654   8.547   7.840
 5169SOL    HW120354   1.741   8.567   7.805
 5169SOL    HW220355   1.639   8.614   7.907
 5170SOL     OW20356   0.065   8.217   9.025
 5170SOL    HW120357   0.153   8.246   8.999
 5170SOL    HW220358   0.006   8.280   8.985
 5171SOL     OW20359   1.269   8.659   8.894
 5171SOL    HW120360   1.272   8.601   8.818
 5171SOL    HW220361   1.352   8.642   8.939
 5172SOL     OW20362   0.825   7.497   7.971
 5172SOL    HW120363   0.861   7.584   7.951
 5172SOL    HW220364   0.731   7.510   7.971
 5173SOL     OW20365   0.125   8.336   8.679
 5173SOL    HW120366   0.187   8.361   8.747
 5173SOL    HW220367   0.179   8.319   8.602
 5174SOL     OW20368   1.501   8.456   7.633
 5174SOL    HW120369   1.429   8.404   7.668
 5174SOL    HW220370   1.546   8.490   7.711
 5175SOL     OW20371   1.266   9.304   9.080
 5175SOL    HW120372   1.218   9.351   9.012
 5175SOL    HW220373   1.267   9.213   9.050
 5176SOL     OW20374   0.356   7.682   9.205
 5176SOL    HW120375   0.402   7.764   9.221
 5176SOL    HW220376   0.266   7.700   9.234
 5177SOL     OW20377   1.399   8.901   8.334
 5177SOL    HW120378   1.374   8.920   8.424
 5177SOL    HW220379   1.404   8.806   8.330
 5178SOL     OW20380   1.725   9.179   8.013
 5178SOL    HW120381   1.638   9.140   8.005
 5178SOL    HW220382   1.768   9.128   8.081
 5179SOL     OW20383   0.625   8.287   7.791
 5179SOL    HW120384   0.545   8.321   7.751
 5179SOL    HW220385   0.596   8.252   7.876
 5180SOL     OW20386   1.548   9.095   7.761
 5180SOL    HW120387   1.641   9.115   7.755
 5180SOL    HW220388   1.519   9.090   7.669
 5181SOL     OW20389   0.768   8.021   8.818
 5181SOL    HW120390   0.739   8.037   8.908
 5181SOL    HW220391   0.689   7.997   8.771
 5182SOL     OW20392   1.406   7.915   9.124
 5182SOL    HW120393   1.419   7.947   9.213
 5182SOL    HW220394   1.446   7.828   9.123
 5183SOL     OW20395   0.917   8.367   9.069
 5183SOL    HW120396   0.970   8.297   9.032
 5183SOL    HW220397   0.874   8.408   8.994
 5184SOL     OW20398   0.902   7.845   8.622
 5184SOL    HW120399   0.868   7.905   8.689
 5184SOL    HW220400   0.904   7.897   8.542
 5185SOL     OW20401   1.016   8.111   7.876
 5185SOL    HW120402   1.031   8.109   7.970
 5185SOL    HW220403   0.926   8.080   7.864
 5186SOL     OW20404   0.093   8.252   8.194
 5186SOL    HW120405   0.150   8.255   8.271
 5186SOL    HW220406   0.101   8.338   8.154
 5187SOL     OW20407   0.103   9.332   9.092
 5187SOL    HW120408   0.118   9.287   9.175
 5187SOL    HW220409   0.008   9.341   9.087
 5188SOL     OW20410   0.929   7.745   7.623
 5188SOL    HW120411   0.899   7.832   7.596
 5188SOL    HW220412   0.962   7.704   7.543
 5189SOL     OW20413   1.736   8.016   9.237
 5189SOL    HW120414   1.704   8.097   9.198
 5189SOL    HW220415   1.734   7.952   9.166
 5190SOL     OW20416   1.399   8.552   8.048
 5190SOL    HW120417   1.461   8.624   8.037
 5190SOL    HW220418   1.313   8.595   8.048
 5191SOL     OW20419   0.536   7.604   8.379
 5191SOL    HW120420   0.543   7.629   8.471
 5191SOL    HW220421   0.526   7.687   8.332
 5192SOL     OW20422   0.390   9.244   8.373
 5192SOL    HW120423   0.444   9.165   8.370
 5192SOL    HW220424   0.453   9.315   8.377
 5193SOL     OW20425   1.797   8.449   8.222
 5193SOL    HW120426   1.817   8.540   8.201
 5193SOL    HW220427   1.737   8.454   8.296
 5194SOL     OW20428   1.260   9.027   8.979
 5194SOL    HW120429   1.257   8.961   9.048
 5194SOL    HW220430   1.196   8.997   8.914
 5195SOL     OW20431   1.501   8.140   8.194
 5195SOL    HW120432   1.426   8.132   8.252
 5195SOL    HW220433   1.576   8.110   8.247
 5196SOL     OW20434   0.476   8.747   9.139
 5196SOL    HW120435   0.421   8.773   9.065
 5196SOL    HW220436   0.416   8.747   9.214
 5197SOL     OW20437   1.154   9.192   7.668
 5197SOL    HW120438   1.071   9.166   7.708
 5197SOL    HW220439   1.168   9.128   7.598
 5198SOL     OW20440   0.198   7.724   8.966
 5198SOL    HW120441   0.199   7.820   8.973
 5198SOL    HW220442   0.263   7.695   9.029
 5199SOL     OW20443   1.612   8.835   7.512
 5199SOL    HW120444   1.578   8.925   7.509
 5199SOL    HW220445   1.534   8.781   7.499
 5200SOL     OW20446   0.501   9.205   7.774
 5200SOL    HW120447   0.539   9.263   7.840
 5200SOL    HW220448   0.576   9.165   7.731
 5201SOL     OW20449   1.432   7.586   7.872
 5201SOL    HW120450   1.445   7.630   7.789
 5201SOL    HW220451   1.514   7.600   7.920
 5202SOL     OW20452   0.248   9.218   8.622
 5202SOL    HW120453   0.284   9.136   8.656
 5202SOL    HW220454   0.286   9.227   8.534
 5203SOL     OW20455   0.962   9.141   8.404
 5203SOL    HW120456   1.046   9.113   8.368
 5203SOL    HW220457   0.906   9.063   8.397
 5204SOL     OW20458   0.404   8.105   7.923
 5204SOL    HW120459   0.313   8.098   7.951
 5204SOL    HW220460   0.399   8.154   7.840
 5205SOL     OW20461   1.503   7.650   9.141
 5205SOL    HW120462   1.509   7.655   9.236
 5205SOL    HW220463   1.430   7.590   9.124
 5206SOL     OW20464   0.649   7.528   7.545
 5206SOL    HW120465   0.708   7.582   7.492
 5206SOL    HW220466   0.582   7.498   7.485
 5207SOL     OW20467   0.708   7.690   9.134
 5207SOL    HW120468   0.800   7.665   9.134
 5207SOL    HW220469   0.683   7.690   9.226
 5208SOL     OW20470   0.849   8.901   8.644
 5208SOL    HW120471   0.838   8.852   8.562
 5208SOL    HW220472   0.941   8.929   8.643
 5209SOL     OW20473   1.291   8.077   8.925
 5209SOL    HW120474   1.344   8.024   8.985
 5209SOL    HW220475   1.353   8.137   8.884
 5210SOL     OW20476   0.957   7.959   8.361
 5210SOL    HW120477   0.922   7.953   8.272
 5210SOL    HW220478   1.025   7.891   8.364
 5211SOL     OW20479   0.551   7.552   7.946
 5211SOL    HW120480   0.477   7.542   8.007
 5211SOL    HW220481   0.538   7.639   7.908
 5212SOL     OW20482   1.399   8.661   7.473
 5212SOL    HW120483   1.426   8.591   7.533
 5212SOL    HW220484   1.314   8.690   7.506
 5213SOL     OW20485   0.298   7.539   7.644
 5213SOL    HW120486   0.352   7.616   7.660
 5213SOL    HW220487   0.346   7.467   7.684
 5214SOL     OW20488   0.939   7.737   7.901
 5214SOL    HW120489   0.929   7.745   7.806
 5214SOL    HW220490   1.033   7.752   7.916
 5215SOL     OW20491   1.034   8.155   8.939
 5215SOL    HW120492   0.989   8.071   8.935
 5215SOL    HW220493   1.127   8.134   8.937
 5216SOL     OW20494   1.184   9.070   8.263
 5216SOL    HW120495   1.219   9.125   8.194
 5216SOL    HW220496   1.254   9.007   8.282
 5217SOL     OW20497   0.471   8.512   8.195
 5217SOL    HW120498   0.402   8.540   8.255
 5217SOL    HW220499   0.439   8.535   8.108
 5218SOL     OW20500   1.245   9.251   8.057
 5218SOL    HW120501   1.298   9.321   8.017
 5218SOL    HW220502   1.167   9.296   8.089
 5219SOL     OW20503   1.067   8.021   7.470
 5219SOL    HW120504   1.105   8.108   7.459
 5219SOL    HW220505   1.093   7.993   7.558
 5220SOL     OW20506   0.061   8.028   8.787
 5220SOL    HW120507   0.150   7.993   8.787
 5220SOL    HW220508   0.066   8.107   8.840
 5221SOL     OW20509   0.550   7.664   8.649
 5221SOL    HW120510   0.606   7.643   8.724
 5221SOL    HW220511   0.461   7.645   8.680
 5222SOL     OW20512   0.852   7.932   8.107
 5222SOL    HW120513   0.772   7.980   8.085
 5222SOL    HW220514   0.862   7.869   8.035
 5223SOL     OW20515   1.044   7.397   8.118
 5223SOL    HW120516   0.970   7.445   8.081
 5223SOL    HW220517   1.050   7.427   8.209
 5224SOL     OW20518   1.391   8.615   8.318
 5224SOL    HW120519   1.298   8.640   8.308
 5224SOL    HW220520   1.414   8.572   8.236
 5225SOL     OW20521   1.418   8.040   8.453
 5225SOL    HW120522   1.382   7.951   8.447
 5225SOL    HW220523   1.512   8.029   8.446
 5226SOL     OW20524   1.908   8.250   7.767
 5226SOL    HW120525   1.860   8.271   7.847
 5226SOL    HW220526   1.889   8.157   7.752
 5227SOL     OW20527   0.520   8.828   7.588
 5227SOL    HW120528   0.445   8.811   7.644
 5227SOL    HW220529   0.496   8.790   7.503
 5228SOL     OW20530   1.634   8.725   8.045
 5228SOL    HW120531   1.717   8.720   8.092
 5228SOL    HW220532   1.602   8.814   8.061
 5229SOL     OW20533   1.405   7.985   7.579
 5229SOL    HW120534   1.322   7.983   7.626
 5229SOL    HW220535   1.457   8.053   7.623
 5230SOL     OW20536   0.507   7.720   7.692
 5230SOL    HW120537   0.572   7.664   7.649
 5230SOL    HW220538   0.530   7.809   7.666
 5231SOL     OW20539   1.744   8.691   9.035
 5231SOL    HW120540   1.802   8.663   9.107
 5231SOL    HW220541   1.761   8.784   9.025
 5232SOL     OW20542   1.087   8.859   8.838
 5232SOL    HW120543   1.002   8.815   8.849
 5232SOL    HW220544   1.151   8.788   8.844
 5233SOL     OW20545   1.611   9.093   9.108
 5233SOL    HW120546   1.588   9.125   9.020
 5233SOL    HW220547   1.689   9.040   9.095
 5234SOL     OW20548   1.115   8.701   8.520
 5234SOL    HW120549   1.019   8.708   8.516
 5234SOL    HW220550   1.142   8.703   8.428
 5235SOL     OW20551   1.594   8.496   8.486
 5235SOL    HW120552   1.587   8.550   8.565
 5235SOL    HW220553   1.520   8.524   8.432
 5236SOL     OW20554   0.986   7.554   8.881
 5236SOL    HW120555   1.081   7.548   8.871
 5236SOL    HW220556   0.973   7.570   8.975
 5237SOL     OW20557   1.042   8.569   9.229
 5237SOL    HW120558   0.980   8.638   9.253
 5237SOL    HW220559   0.993   8.515   9.166
 5238SOL     OW20560   0.800   8.476   7.899
 5238SOL    HW120561   0.783   8.445   7.988
 5238SOL    HW220562   0.734   8.433   7.845
 5239SOL     OW20563   0.452   8.213   8.710
 5239SOL    HW120564   0.386   8.236   8.776
 5239SOL    HW220565   0.456   8.117   8.714
 5240SOL     OW20566   0.088   9.022   8.832
 5240SOL    HW120567   0.075   9.107   8.791
 5240SOL    HW220568   0.178   8.998   8.812
 5241SOL     OW20569   0.361   8.566   7.948
 5241SOL    HW120570   0.356   8.641   7.889
 5241SOL    HW220571   0.368   8.490   7.889
 5242SOL     OW20572   0.535   7.926   8.296
 5242SOL    HW120573   0.559   7.971   8.215
 5242SOL    HW220574   0.597   7.960   8.361
 5243SOL     OW20575   1.174   8.821   7.835
 5243SOL    HW120576   1.230   8.894   7.859
 5243SOL    HW220577   1.186   8.756   7.904
 5244SOL     OW20578   1.294   8.922   8.589
 5244SOL    HW120579   1.349   8.905   8.665
 5244SOL    HW220580   1.231   8.850   8.588
 5245SOL     OW20581   1.609   8.073   7.942
 5245SOL    HW120582   1.555   8.073   8.021
 5245SOL    HW220583   1.655   8.157   7.944
 5246SOL     OW20584   0.336   8.966   8.720
 5246SOL    HW120585   0.338   8.918   8.637
 5246SOL    HW220586   0.427   8.981   8.742
 5247SOL     OW20587   1.650   8.257   9.129
 5247SOL    HW120588   1.557   8.277   9.123
 5247SOL    HW220589   1.689   8.299   9.052
 5248SOL     OW20590   0.963   7.589   9.150
 5248SOL    HW120591   1.038   7.645   9.171
 5248SOL    HW220592   0.984   7.504   9.189
 5249SOL     OW20593   0.517   7.458   9.249
 5249SOL    HW120594   0.460   7.428   9.320
 5249SOL    HW220595   0.470   7.531   9.209
 5250SOL     OW20596   0.561   8.305   8.478
 5250SOL    HW120597   0.586   8.397   8.483
 5250SOL    HW220598   0.527   8.284   8.565
 5251SOL     OW20599   1.298   8.284   8.503
 5251SOL    HW120600   1.210   8.265   8.470
 5251SOL    HW220601   1.346   8.202   8.492
 5252SOL     OW20602   1.174   7.956   7.720
 5252SOL    HW120603   1.189   7.884   7.782
 5252SOL    HW220604   1.125   8.021   7.770
 5253SOL     OW20605   0.289   7.608   8.731
 5253SOL    HW120606   0.260   7.661   8.805
 5253SOL    HW220607   0.260   7.519   8.752
 5254SOL     OW20608   9.988   8.765   8.761
 5254SOL    HW120609   0.003   8.705   8.834
 5254SOL    HW220610   0.018   8.850   8.793
 5255SOL     OW20611   0.706   8.066   8.458
 5255SOL    HW120612   0.793   8.070   8.417
 5255SOL    HW220613   0.674   8.156   8.453
 5256SOL     OW20614   1.751   8.418   9.333
 5256SOL    HW120615   1.714   8.354   9.272
 5256SOL    HW220616   1.681   8.435   9.396
 5257SOL     OW20617   0.316   7.523   8.100
 5257SOL    HW120618   0.297   7.609   8.138
 5257SOL    HW220619   0.317   7.464   8.175
 5258SOL     OW20620   1.645   7.845   7.799
 5258SOL    HW120621   1.659   7.781   7.869
 5258SOL    HW220622   1.623   7.926   7.845
 5259SOL     OW20623   1.035   8.214   8.442
 5259SOL    HW120624   0.998   8.218   8.531
 5259SOL    HW220625   1.021   8.124   8.414
 5260SOL     OW20626   1.012   9.006   9.189
 5260SOL    HW120627   0.972   9.060   9.121
 5260SOL    HW220628   1.057   8.936   9.141
 5261SOL     OW20629   1.841   8.951   9.035
 5261SOL    HW120630   1.867   8.982   8.949
 5261SOL    HW220631   1.918   8.967   9.090
 5262SOL     OW20632   1.484   7.713   7.614
 5262SOL    HW120633   1.430   7.788   7.590
 5262SOL    HW220634   1.555   7.751   7.667
 5263SOL     OW20635   1.196   8.269   7.463
 5263SOL    HW120636   1.246   8.280   7.544
 5263SOL    HW220637   1.257   8.295   7.394
 5264SOL     OW20638   0.281   8.272   8.422
 5264SOL    HW120639   0.374   8.295   8.419
 5264SOL    HW220640   0.280   8.177   8.432
 5265SOL     OW20641   0.298   7.997   8.430
 5265SOL    HW120642   0.274   7.911   8.465
 5265SOL    HW220643   0.375   7.981   8.377
 5266SOL     OW20644   1.161   7.776   9.191
 5266SOL    HW120645   1.110   7.841   9.238
 5266SOL    HW220646   1.232   7.826   9.150
 5267SOL     OW20647   0.581   9.020   8.404
 5267SOL    HW120648   0.617   9.106   8.422
 5267SOL    HW220649   0.657   8.965   8.385
 5268SOL     OW20650   0.920   8.225   8.694
 5268SOL    HW120651   0.984   8.226   8.765
 5268SOL    HW220652   0.852   8.164   8.722
 5269SOL     OW20653   0.020   7.987   8.519
 5269SOL    HW120654   0.104   8.018   8.485
 5269SOL    HW220655   0.023   8.007   8.612
 5270SOL     OW20656   0.209   7.986   9.080
 5270SOL    HW120657   0.293   8.029   9.097
 5270SOL    HW220658   0.150   8.057   9.057
 5271SOL     OW20659   1.398   8.355   9.087
 5271SOL    HW120660   1.414   8.449   9.086
 5271SOL    HW220661   1.387   8.332   8.995
 5272SOL     OW20662   0.764   8.049   7.768
 5272SOL    HW120663   0.693   8.000   7.725
 5272SOL    HW220664   0.733   8.140   7.768
 5273SOL     OW20665   0.287   9.021   9.184
 5273SOL    HW120666   0.231   9.079   9.235
 5273SOL    HW220667   0.269   8.934   9.219
 5274SOL     OW20668   0.561   7.942   8.651
 5274SOL    HW120669   0.571   7.848   8.638
 5274SOL    HW220670   0.610   7.982   8.579
 5275SOL     OW20671   0.883   9.158   8.987
 5275SOL    HW120672   0.855   9.101   8.916
 5275SOL    HW220673   0.899   9.242   8.945
 5276SOL     OW20674   0.526   7.995   7.599
 5276SOL    HW120675   0.577   8.036   7.529
 5276SOL    HW220676   0.469   8.065   7.630
 5277SOL     OW20677   0.055   8.568   8.951
 5277SOL    HW120678   0.071   8.560   9.045
 5277SOL    HW220679   0.139   8.546   8.911
 5278SOL     OW20680   1.262   8.503   8.663
 5278SOL    HW120681   1.279   8.434   8.599
 5278SOL    HW220682   1.215   8.571   8.614
 5279SOL     OW20683   1.284   8.311   7.729
 5279SOL    HW120684   1.316   8.290   7.817
 5279SOL    HW220685   1.194   8.339   7.743
 5280SOL     OW20686   1.286   9.203   8.583
 5280SOL    HW120687   1.369   9.219   8.538
 5280SOL    HW220688   1.278   9.107   8.586
 5281SOL     OW20689   0.004   8.647   8.503
 5281SOL    HW120690   0.027   8.672   8.593
 5281SOL    HW220691   9.927   8.700   8.483
 5282SOL     OW20692   0.704   9.134   9.201
 5282SOL    HW120693   0.630   9.191   9.185
 5282SOL    HW220694   0.767   9.155   9.132
 5283SOL     OW20695   1.682   7.636   7.984
 5283SOL    HW120696   1.774   7.627   7.960
 5283SOL    HW220697   1.684   7.691   8.063
 5284SOL     OW20698   1.334   9.025   7.922
 5284SOL    HW120699   1.402   9.057   7.862
 5284SOL    HW220700   1.295   9.105   7.957
 5285SOL     OW20701   0.145   9.208   9.334
 5285SOL    HW120702   0.085   9.173   9.400
 5285SOL    HW220703   0.211   9.254   9.385
 5286SOL     OW20704   1.367   8.285   7.994
 5286SOL    HW120705   1.420   8.242   8.061
 5286SOL    HW220706   1.373   8.378   8.014
 5287SOL     OW20707   0.830   8.746   8.872
 5287SOL    HW120708   0.792   8.795   8.945
 5287SOL    HW220709   0.813   8.800   8.795
 5288SOL     OW20710   0.673   9.064   7.599
 5288SOL    HW120711   0.693   9.074   7.506
 5288SOL    HW220712   0.616   8.987   7.603
 5289SOL     OW20713   1.636   9.165   8.811
 5289SOL    HW120714   1.674   9.170   8.724
 5289SOL    HW220715   1.641   9.254   8.846
 5290SOL     OW20716   1.793   7.539   8.513
 5290SOL    HW120717   1.828   7.491   8.438
 5290SOL    HW220718   1.721   7.590   8.478
 5291SOL     OW20719   0.246   7.752   8.236
 5291SOL    HW120720   0.168   7.797   8.204
 5291SOL    HW220721   0.233   7.744   8.330
 5292SOL     OW20722   1.216   9.008   7.465
 5292SOL    HW120723   1.204   8.918   7.496
 5292SOL    HW220724   1.148   9.019   7.398
 5293SOL     OW20725   0.806   8.475   8.843
 5293SOL    HW120726   0.841   8.431   8.765
 5293SOL    HW220727   0.832   8.566   8.834
 5294SOL     OW20728   1.002   8.356   7.751
 5294SOL    HW120729   0.951   8.411   7.811
 5294SOL    HW220730   1.009   8.272   7.795
 5295SOL     OW20731   1.477   9.093   7.494
 5295SOL    HW120732   1.386   9.070   7.474
 5295SOL    HW220733   1.519   9.100   7.408
 5296SOL     OW20734   0.322   8.768   8.921
 5296SOL    HW120735   0.321   8.829   8.848
 5296SOL    HW220736   0.302   8.683   8.882
 5297SOL     OW20737   1.580   8.655   8.723
 5297SOL    HW120738   1.674   8.676   8.724
 5297SOL    HW220739   1.537   8.736   8.751
 5298SOL     OW20740   1.057   8.401   8.090
 5298SOL    HW120741   1.000   8.416   8.166
 5298SOL    HW220742   1.097   8.485   8.072
 5299SOL     OW20743   0.669   8.931   7.949
 5299SOL    HW120744   0.683   8.893   7.862
 5299SOL    HW220745   0.574   8.928   7.961
 5300SOL     OW20746   1.718   7.891   8.797
 5300SOL    HW120747   1.741   7.951   8.725
 5300SOL    HW220748   1.643   7.842   8.763
 5301SOL     OW20749   0.315   8.764   7.759
 5301SOL    HW120750   0.247   8.717   7.710
 5301SOL    HW220751   0.266   8.814   7.825
 5302SOL     OW20752   0.123   8.499   9.213
 5302SOL    HW120753   0.077   8.502   9.297
 5302SOL    HW220754   0.196   8.438   9.228
 5303SOL     OW20755   0.709   7.598   8.869
 5303SOL    HW120756   0.804   7.595   8.859
 5303SOL    HW220757   0.696   7.635   8.956
 5304SOL     OW20758   0.136   7.801   7.436
 5304SOL    HW120759   0.062   7.806   7.496
 5304SOL    HW220760   0.149   7.891   7.406
 5305SOL     OW20761   1.424   8.309   8.815
 5305SOL    HW120762   1.367   8.367   8.765
 5305SOL    HW220763   1.500   8.296   8.758
 5306SOL     OW20764   0.028   7.605   7.692
 5306SOL    HW120765   0.050   7.637   7.780
 5306SOL    HW220766   0.111   7.577   7.655
 5307SOL     OW20767   1.156   8.753   7.569
 5307SOL    HW120768   1.063   8.764   7.547
 5307SOL    HW220769   1.161   8.774   7.663
 5308SOL     OW20770   1.529   9.263   8.466
 5308SOL    HW120771   1.542   9.316   8.387
 5308SOL    HW220772   1.615   9.224   8.482
 5309SOL     OW20773   0.646   8.056   9.071
 5309SOL    HW120774   0.567   8.104   9.098
 5309SOL    HW220775   0.703   8.060   9.148
 5310SOL     OW20776   1.480   8.618   9.071
 5310SOL    HW120777   1.466   8.644   9.162
 5310SOL    HW220778   1.567   8.651   9.050
 5311SOL     OW20779   0.330   9.204   8.986
 5311SOL    HW120780   0.247   9.249   9.000
 5311SOL    HW220781   0.322   9.123   9.036
 5312SOL     OW20782   1.687   8.295   8.668
 5312SOL    HW120783   1.699   8.206   8.636
 5312SOL    HW220784   1.652   8.344   8.594
 5313SOL     OW20785   1.219   7.766   7.921
 5313SOL    HW120786   1.286   7.698   7.914
 5313SOL    HW220787   1.237   7.811   8.004
 5314SOL     OW20788   0.621   8.093   8.089
 5314SOL    HW120789   0.650   8.182   8.110
 5314SOL    HW220790   0.545   8.106   8.032
 5315SOL     OW20791   1.757   7.793   9.060
 5315SOL    HW120792   1.745   7.829   8.972
 5315SOL    HW220793   1.680   7.738   9.074
 5316SOL     OW20794   1.752   8.413   8.911
 5316SOL    HW120795   1.703   8.495   8.920
 5316SOL    HW220796   1.719   8.374   8.830
 5317SOL     OW20797   0.897   8.814   7.484
 5317SOL    HW120798   0.833   8.786   7.418
 5317SOL    HW220799   0.932   8.896   7.451
 5318SOL     OW20800   0.694   9.266   8.418
 5318SOL    HW120801   0.674   9.351   8.380
 5318SOL    HW220802   0.787   9.252   8.398
 5319SOL     OW20803   0.897   8.425   8.323
 5319SOL    HW120804   0.952   8.365   8.374
 5319SOL    HW220805   0.902   8.508   8.370
 5320SOL     OW20806   0.262   8.774   9.319
 5320SOL    HW120807   0.176   8.755   9.283
 5320SOL    HW220808   0.258   8.743   9.409
 5321SOL     OW20809   0.136   8.501   8.099
 5321SOL    HW120810   0.167   8.538   8.181
 5321SOL    HW220811   0.200   8.531   8.034
 5322SOL     OW20812   0.716   8.872   9.088
 5322SOL    HW120813   0.633   8.832   9.115
 5322SOL    HW220814   0.716   8.957   9.132
 5323SOL     OW20815   1.854   7.574   8.786
 5323SOL    HW120816   1.769   7.595   8.824
 5323SOL    HW220817   1.840   7.578   8.691
 5324SOL     OW20818   0.422   7.811   8.016
 5324SOL    HW120819   0.444   7.901   7.992
 5324SOL    HW220820   0.395   7.817   8.108
 5325SOL     OW20821   1.857   8.941   8.579
 5325SOL    HW120822   1.806   9.018   8.554
 5325SOL    HW220823   1.926   8.936   8.512
 5326SOL     OW20824   0.319   7.932   8.781
 5326SOL    HW120825   0.366   7.902   8.859
 5326SOL    HW220826   0.386   7.932   8.712
 5327SOL     OW20827   0.812   9.092   8.133
 5327SOL    HW120828   0.748   9.052   8.074
 5327SOL    HW220829   0.810   9.037   8.211
 5328SOL     OW20830   0.756   8.793   7.725
 5328SOL    HW120831   0.670   8.785   7.684
 5328SOL    HW220832   0.816   8.807   7.652
 5329SOL     OW20833   0.608   8.982   8.751
 5329SOL    HW120834   0.608   9.073   8.782
 5329SOL    HW220835   0.689   8.973   8.700
 5330SOL     OW20836   1.382   7.438   7.563
 5330SOL    HW120837   1.409   7.528   7.584
 5330SOL    HW220838   1.298   7.427   7.607
 5331SOL     OW20839   1.298   7.878   8.159
 5331SOL    HW120840   1.252   7.962   8.159
 5331SOL    HW220841   1.275   7.838   8.243
 5332SOL     OW20842   1.563   7.637   8.381
 5332SOL    HW120843   1.482   7.680   8.409
 5332SOL    HW220844   1.595   7.691   8.309
 5333SOL     OW20845   0.902   9.110   7.762
 5333SOL    HW120846   0.826   9.087   7.709
 5333SOL    HW220847   0.876   9.189   7.808
 5334SOL     OW20848   0.319   8.035   9.357
 5334SOL    HW120849   0.232   8.075   9.360
 5334SOL    HW220850   0.368   8.090   9.295
 5335SOL     OW20851   1.812   8.033   9.496
 5335SOL    HW120852   1.781   8.039   9.405
 5335SOL    HW220853   1.743   7.986   9.542
 5336SOL     OW20854   0.213   9.121   9.737
 5336SOL    HW120855   0.175   9.198   9.778
 5336SOL    HW220856   0.305   9.143   9.725
 5337SOL     OW20857   0.202   8.882   9.874
 5337SOL    HW120858   0.197   8.969   9.836
 5337SOL    HW220859   0.187   8.895   9.968
 5338SOL     OW20860   0.578   8.446   9.541
 5338SOL    HW120861   0.605   8.487   9.458
 5338SOL    HW220862   0.633   8.487   9.607
 5339SOL     OW20863   0.149   8.129   9.879
 5339SOL    HW120864   0.132   8.057   9.819
 5339SOL    HW220865   0.063   8.163   9.901
 5340SOL     OW20866   1.848   9.208   9.636
 5340SOL    HW120867   1.930   9.196   9.684
 5340SOL    HW220868   1.849   9.300   9.609
 5341SOL     OW20869   0.014   9.083   9.549
 5341SOL    HW120870   0.014   8.988   9.534
 5341SOL    HW220871   0.081   9.097   9.615
 5342SOL     OW20872   1.680   8.311   9.905
 5342SOL    HW120873   1.743   8.344   9.970
 5342SOL    HW220874   1.653   8.389   9.856
 5343SOL     OW20875   1.641   8.556   9.768
 5343SOL    HW120876   1.729   8.547   9.732
 5343SOL    HW220877   1.644   8.636   9.820
 5344SOL     OW20878   0.688   8.717   9.939
 5344SOL    HW120879   0.609   8.684   9.981
 5344SOL    HW220880   0.658   8.790   9.884
 5345SOL     OW20881   0.846   7.433   9.842
 5345SOL    HW120882   0.888   7.433   9.756
 5345SOL    HW220883   0.762   7.476   9.826
 5346SOL     OW20884   1.541   8.465   9.519
 5346SOL    HW120885   1.475   8.401   9.544
 5346SOL    HW220886   1.575   8.499   9.602
 5347SOL     OW20887   0.608   8.176   9.612
 5347SOL    HW120888   0.602   8.265   9.578
 5347SOL    HW220889   0.543   8.172   9.682
 5348SOL     OW20890   1.591   9.090   9.636
 5348SOL    HW120891   1.677   9.130   9.646
 5348SOL    HW220892   1.573   9.093   9.542
 5349SOL     OW20893   1.088   8.152   9.751
 5349SOL    HW120894   1.103   8.099   9.828
 5349SOL    HW220895   1.003   8.122   9.717
 5350SOL     OW20896   0.061   8.395   0.068
 5350SOL    HW120897   0.129   8.329   0.080
 5350SOL    HW220898   0.047   8.431   0.156
 5351SOL     OW20899   0.855   7.802   9.506
 5351SOL    HW120900   0.907   7.841   9.437
 5351SOL    HW220901   0.812   7.727   9.464
 5352SOL     OW20902   1.357   8.529   9.849
 5352SOL    HW120903   1.441   8.528   9.803
 5352SOL    HW220904   1.303   8.592   9.800
 5353SOL     OW20905   1.002   8.892   9.799
 5353SOL    HW120906   0.974   8.979   9.768
 5353SOL    HW220907   0.968   8.887   9.888
 5354SOL     OW20908   0.287   9.210   0.151
 5354SOL    HW120909   0.358   9.201   0.214
 5354SOL    HW220910   0.227   9.273   0.191
 5355SOL     OW20911   0.305   8.415   9.532
 5355SOL    HW120912   0.399   8.424   9.545
 5355SOL    HW220913   0.297   8.372   9.447
 5356SOL     OW20914   1.180   9.152   9.599
 5356SOL    HW120915   1.087   9.151   9.622
 5356SOL    HW220916   1.185   9.108   9.515
 5357SOL     OW20917   1.639   8.848   9.400
 5357SOL    HW120918   1.600   8.934   9.385
 5357SOL    HW220919   1.572   8.785   9.373
 5358SOL     OW20920   0.487   9.179   9.675
 5358SOL    HW120921   0.519   9.250   9.731
 5358SOL    HW220922   0.557   9.165   9.611
 5359SOL     OW20923   1.389   7.601   9.711
 5359SOL    HW120924   1.359   7.561   9.630
 5359SOL    HW220925   1.484   7.604   9.703
 5360SOL     OW20926   0.422   8.135   9.814
 5360SOL    HW120927   0.422   8.040   9.820
 5360SOL    HW220928   0.331   8.160   9.831
 5361SOL     OW20929   0.710   7.580   9.407
 5361SOL    HW120930   0.760   7.512   9.452
 5361SOL    HW220931   0.649   7.533   9.350
 5362SOL     OW20932   0.582   7.535   9.832
 5362SOL    HW120933   0.504   7.536   9.888
 5362SOL    HW220934   0.562   7.598   9.762
 5363SOL     OW20935   1.445   8.661   9.342
 5363SOL    HW120936   1.468   8.588   9.400
 5363SOL    HW220937   1.358   8.688   9.372
 5364SOL     OW20938   0.369   7.474   9.491
 5364SOL    HW120939   0.400   7.560   9.520
 5364SOL    HW220940   0.427   7.412   9.534
 5365SOL     OW20941   0.922   7.775   9.772
 5365SOL    HW120942   0.893   7.772   9.681
 5365SOL    HW220943   1.018   7.769   9.767
 5366SOL     OW20944   0.446   8.624   0.042
 5366SOL    HW120945   0.375   8.609   0.105
 5366SOL    HW220946   0.405   8.609   9.957
 5367SOL     OW20947   1.017   7.955   9.340
 5367SOL    HW120948   0.974   8.039   9.320
 5367SOL    HW220949   1.077   7.976   9.411
 5368SOL     OW20950   0.861   7.955   9.975
 5368SOL    HW120951   0.797   8.024   9.958
 5368SOL    HW220952   0.862   7.903   9.894
 5369SOL     OW20953   1.939   8.236   9.639
 5369SOL    HW120954   1.935   8.196   9.726
 5369SOL    HW220955   1.891   8.175   9.583
 5370SOL     OW20956   0.486   8.911   9.480
 5370SOL    HW120957   0.422   8.872   9.540
 5370SOL    HW220958   0.444   8.904   9.394
 5371SOL     OW20959   1.414   8.003   9.389
 5371SOL    HW120960   1.335   7.994   9.443
 5371SOL    HW220961   1.487   7.994   9.451
 5372SOL     OW20962   0.542   7.684   9.602
 5372SOL    HW120963   0.611   7.652   9.545
 5372SOL    HW220964   0.530   7.775   9.578
 5373SOL     OW20965   0.754   8.563   9.713
 5373SOL    HW120966   0.744   8.595   9.802
 5373SOL    HW220967   0.832   8.508   9.715
 5374SOL     OW20968   0.325   8.574   9.794
 5374SOL    HW120969   0.325   8.648   9.733
 5374SOL    HW220970   0.327   8.497   9.738
 5375SOL     OW20971   1.234   8.758   9.726
 5375SOL    HW120972   1.291   8.835   9.734
 5375SOL    HW220973   1.148   8.789   9.753
 5376SOL     OW20974   1.608   8.053   9.841
 5376SOL    HW120975   1.546   8.036   9.912
 5376SOL    HW220976   1.628   8.146   9.848
 5377SOL     OW20977   1.194   7.985   9.553
 5377SOL    HW120978   1.194   7.909   9.611
 5377SOL    HW220979   1.162   8.057   9.608
 5378SOL     OW20980   0.380   7.516   0.015
 5378SOL    HW120981   0.293   7.506   9.978
 5378SOL    HW220982   0.373   7.481   0.104
 5379SOL     OW20983   1.596   7.894   9.613
 5379SOL    HW120984   1.620   7.810   9.651
 5379SOL    HW220985   1.590   7.954   9.687
 5380SOL     OW20986   1.488   7.695   9.415
 5380SOL    HW120987   1.396   7.686   9.440
 5380SOL    HW220988   1.521   7.766   9.470
 5381SOL     OW20989   1.302   8.253   9.326
 5381SOL    HW120990   1.342   8.166   9.325
 5381SOL    HW220991   1.326   8.292   9.242
 5382SOL     OW20992   0.005   8.804   9.524
 5382SOL    HW120993   9.987   8.806   9.430
 5382SOL    HW220994   0.007   8.711   9.545
 5383SOL     OW20995   0.857   8.054   9.646
 5383SOL    HW120996   0.843   7.970   9.602
 5383SOL    HW220997   0.774   8.100   9.636
 5384SOL     OW20998   0.527   7.936   9.502
 5384SOL    HW120999   0.570   8.014   9.538
 5384SOL    HW221000   0.457   7.970   9.447
 5385SOL     OW21001   1.338   8.295   9.599
 5385SOL    HW121002   1.254   8.279   9.643
 5385SOL    HW221003   1.320   8.277   9.506
 5386SOL     OW21004   1.674   7.645   9.712
 5386SOL    HW121005   1.744   7.623   9.650
 5386SOL    HW221006   1.711   7.625   9.798
 5387SOL     OW21007   1.355   9.009   9.759
 5387SOL    HW121008   1.441   9.029   9.723
 5387SOL    HW221009   1.295   9.066   9.711
 5388SOL     OW21010   0.683   9.106   9.479
 5388SOL    HW121011   0.707   9.113   9.386
 5388SOL    HW221012   0.624   9.030   9.483
 5389SOL     OW21013   1.229   9.020   9.362
 5389SOL    HW121014   1.231   8.926   9.378
 5389SOL    HW221015   1.158   9.032   9.299
 5390SOL     OW21016   0.978   8.408   9.682
 5390SOL    HW121017   1.009   8.407   9.592
 5390SOL    HW221018   1.008   8.324   9.719
 5391SOL     OW21019   1.499   9.098   9.364
 5391SOL    HW121020   1.407   9.074   9.350
 5391SOL    HW221021   1.535   9.109   9.276
 5392SOL     OW21022   0.602   8.913   9.767
 5392SOL    HW121023   0.648   8.894   9.685
 5392SOL    HW221024   0.545   8.987   9.746
 5393SOL     OW21025   0.269   8.797   9.624
 5393SOL    HW121026   0.179   8.803   9.591
 5393SOL    HW221027   0.264   8.830   9.713
 5394SOL     OW21028   0.104   7.789   9.252
 5394SOL    HW121029   0.009   7.781   9.236
 5394SOL    HW221030   0.131   7.861   9.195
 5395SOL     OW21031   0.105   7.535   9.548
 5395SOL    HW121032   0.116   7.598   9.618
 5395SOL    HW221033   0.193   7.498   9.535
 5396SOL     OW21034   1.203   8.752   9.444
 5396SOL    HW121035   1.110   8.747   9.421
 5396SOL    HW221036   1.204   8.741   9.539
 5397SOL     OW21037   1.202   7.804   9.759
 5397SOL    HW121038   1.275   7.742   9.761
 5397SOL    HW221039   1.208   7.851   9.842
 5398SOL     OW21040   0.664   8.160   9.959
 5398SOL    HW121041   0.659   8.234   0.019
 5398SOL    HW221042   0.581   8.163   9.910
 5399SOL     OW21043   0.936   8.790   9.356
 5399SOL    HW121044   0.880   8.806   9.432
 5399SOL    HW221045   0.934   8.872   9.307
 5400SOL     OW21046   1.079   8.382   9.424
 5400SOL    HW121047   1.069   8.457   9.366
 5400SOL    HW221048   1.156   8.336   9.390
 5401SOL     OW21049   0.045   8.582   9.870
 5401SOL    HW121050   0.050   8.511   9.933
 5401SOL    HW221051   0.134   8.616   9.864
 5402SOL     OW21052   0.442   7.862   9.869
 5402SOL    HW121053   0.528   7.829   9.841
 5402SOL    HW221054   0.454   7.885   9.961
 5403SOL     OW21055   0.814   8.808   9.602
 5403SOL    HW121056   0.786   8.721   9.630
 5403SOL    HW221057   0.880   8.834   9.667
 5404SOL     OW21058   1.229   7.496   9.504
 5404SOL    HW121059   1.211   7.494   9.410
 5404SOL    HW221060   1.146   7.471   9.545
 5405SOL     OW21061   0.062   8.544   9.586
 5405SOL    HW121062   0.142   8.492   9.573
 5405SOL    HW221063   0.046   8.538   9.680
 5406SOL     OW21064   0.909   9.124   9.671
 5406SOL    HW121065   0.838   9.112   9.608
 5406SOL    HW221066   0.882   9.201   9.722
 5407SOL     OW21067   0.164   9.591   0.994
 5407SOL    HW121068   0.215   9.563   1.070
 5407SOL    HW221069   0.074   9.567   1.017
 5408SOL     OW21070   9.966   9.720   0.687
 5408SOL    HW121071   9.886   9.747   0.643
 5408SOL    HW221072   9.946   9.633   0.721
 5409SOL     OW21073   1.768   9.873   0.165
 5409SOL    HW121074   1.807   9.834   0.087
 5409SOL    HW221075   1.730   9.799   0.212
 5410SOL     OW21076   0.433   9.644   1.528
 5410SOL    HW121077   0.517   9.600   1.521
 5410SOL    HW221078   0.436   9.713   1.461
 5411SOL     OW21079   1.627   9.720   0.756
 5411SOL    HW121080   1.613   9.772   0.677
 5411SOL    HW221081   1.582   9.769   0.825
 5412SOL     OW21082   1.646   9.417   1.499
 5412SOL    HW121083   1.683   9.490   1.450
 5412SOL    HW221084   1.586   9.457   1.561
 5413SOL     OW21085   0.088   9.918   0.536
 5413SOL    HW121086   0.049   9.844   0.582
 5413SOL    HW221087   0.089   9.988   0.602
 5414SOL     OW21088   0.829   9.347   0.512
 5414SOL    HW121089   0.861   9.432   0.482
 5414SOL    HW221090   0.737   9.362   0.532
 5415SOL     OW21091   0.343   9.618   1.801
 5415SOL    HW121092   0.380   9.629   1.713
 5415SOL    HW221093   0.248   9.620   1.787
 5416SOL     OW21094   1.256   9.669   0.916
 5416SOL    HW121095   1.167   9.637   0.930
 5416SOL    HW221096   1.311   9.613   0.971
 5417SOL     OW21097   0.852   9.868   1.436
 5417SOL    HW121098   0.797   9.888   1.512
 5417SOL    HW221099   0.791   9.839   1.369
 5418SOL     OW21100   1.430   9.823   1.666
 5418SOL    HW121101   1.337   9.811   1.681
 5418SOL    HW221102   1.468   9.736   1.680
 5419SOL     OW21103   1.031   9.759   1.258
 5419SOL    HW121104   0.981   9.793   1.333
 5419SOL    HW221105   0.974   9.692   1.220
 5420SOL     OW21106   1.080   0.017   0.349
 5420SOL    HW121107   1.156   0.061   0.385
 5420SOL    HW221108   1.017   0.013   0.421
 5421SOL     OW21109   0.067   0.089   0.758
 5421SOL    HW121110   0.153   0.089   0.801
 5421SOL    HW221111   0.051   0.181   0.738
 5422SOL     OW21112   0.857   9.658   0.161
 5422SOL    HW121113   0.829   9.696   0.078
 5422SOL    HW221114   0.871   9.565   0.141
 5423SOL     OW21115   1.777   9.900   1.827
 5423SOL    HW121116   1.712   9.964   1.798
 5423SOL    HW221117   1.753   9.820   1.781
 5424SOL     OW21118   0.574   9.434   0.955
 5424SOL    HW121119   0.582   9.463   1.046
 5424SOL    HW221120   0.571   9.515   0.904
 5425SOL     OW21121   1.443   0.013   0.736
 5425SOL    HW121122   1.452   9.961   0.816
 5425SOL    HW221123   1.489   0.095   0.754
 5426SOL     OW21124   0.161   9.618   1.464
 5426SOL    HW121125   0.133   9.707   1.444
 5426SOL    HW221126   0.250   9.628   1.496
 5427SOL     OW21127   1.429   9.452   0.518
 5427SOL    HW121128   1.484   9.519   0.476
 5427SOL    HW221129   1.489   9.407   0.578
 5428SOL     OW21130   1.490   9.547   1.689
 5428SOL    HW121131   1.490   9.535   1.784
 5428SOL    HW221132   1.401   9.523   1.662
 5429SOL     OW21133   0.629   9.326   0.133
 5429SOL    HW121134   0.721   9.354   0.127
 5429SOL    HW221135   0.591   9.352   0.049
 5430SOL     OW21136   0.733   9.679   1.795
 5430SOL    HW121137   0.820   9.642   1.778
 5430SOL    HW221138   0.719   9.666   1.888
 5431SOL     OW21139   1.442   9.916   1.408
 5431SOL    HW121140   1.438   9.884   1.498
 5431SOL    HW221141   1.465   0.009   1.416
 5432SOL     OW21142   0.931   9.802   0.896
 5432SOL    HW121143   0.902   9.778   0.808
 5432SOL    HW221144   0.961   9.719   0.934
 5433SOL     OW21145   0.554   9.406   0.547
 5433SOL    HW121146   0.476   9.384   0.599
 5433SOL    HW221147   0.549   9.500   0.536
 5434SOL     OW21148   0.933   9.593   0.428
 5434SOL    HW121149   0.911   9.625   0.340
 5434SOL    HW221150   1.028   9.603   0.434
 5435SOL     OW21151   1.071   9.976   1.567
 5435SOL    HW121152   0.996   9.952   1.512
 5435SOL    HW221153   1.106   0.055   1.526
 5436SOL     OW21154   1.037   9.884   0.041
 5436SOL    HW121155   0.998   9.969   0.060
 5436SOL    HW221156   1.030   9.836   0.124
 5437SOL     OW21157   0.568   9.532   1.206
 5437SOL    HW121158   0.605   9.503   1.289
 5437SOL    HW221159   0.473   9.530   1.221
 5438SOL     OW21160   0.851   9.761   0.639
 5438SOL    HW121161   0.859   9.846   0.596
 5438SOL    HW221162   0.872   9.698   0.571
 5439SOL     OW21163   1.019   9.338   0.725
 5439SOL    HW121164   0.955   9.344   0.654
 5439SOL    HW221165   0.983   9.274   0.785
 5440SOL     OW21166   1.476   9.850   0.950
 5440SOL    HW121167   1.398   9.800   0.974
 5440SOL    HW221168   1.513   9.879   1.033
 5441SOL     OW21169   0.478   9.546   0.279
 5441SOL    HW121170   0.538   9.488   0.231
 5441SOL    HW221171   0.481   9.628   0.230
 5442SOL     OW21172   1.309   9.729   1.245
 5442SOL    HW121173   1.345   9.793   1.306
 5442SOL    HW221174   1.214   9.739   1.252
 5443SOL     OW21175   0.556   9.704   0.871
 5443SOL    HW121176   0.573   9.709   0.777
 5443SOL    HW221177   0.607   9.776   0.908
 5444SOL     OW21178   1.589   9.890   0.533
 5444SOL    HW121179   1.516   9.928   0.582
 5444SOL    HW221180   1.650   9.963   0.523
 5445SOL     OW21181   0.523   9.312   1.778
 5445SOL    HW121182   0.579   9.271   1.712
 5445SOL    HW221183   0.531   9.405   1.761
 5446SOL     OW21184   1.247   9.815   0.255
 5446SOL    HW121185   1.246   9.749   0.325
 5446SOL    HW221186   1.194   9.887   0.290
 5447SOL     OW21187   0.295   9.558   1.231
 5447SOL    HW121188   0.323   9.649   1.246
 5447SOL    HW221189   0.235   9.540   1.304
 5448SOL     OW21190   0.690   9.918   0.982
 5448SOL    HW121191   0.782   9.904   0.960
 5448SOL    HW221192   0.679   0.013   0.979
 5449SOL     OW21193   0.307   9.373   0.676
 5449SOL    HW121194   0.282   9.462   0.702
 5449SOL    HW221195   0.319   9.326   0.758
 5450SOL     OW21196   1.627   9.688   0.346
 5450SOL    HW121197   1.677   9.630   0.403
 5450SOL    HW221198   1.606   9.764   0.400
 5451SOL     OW21199   1.508   9.566   0.127
 5451SOL    HW121200   1.489   9.486   0.176
 5451SOL    HW221201   1.549   9.624   0.191
 5452SOL     OW21202   0.315   0.061   0.886
 5452SOL    HW121203   0.395   0.106   0.914
 5452SOL    HW221204   0.314   9.980   0.936
 5453SOL     OW21205   0.331   9.815   1.001
 5453SOL    HW121206   0.264   9.747   1.006
 5453SOL    HW221207   0.409   9.771   0.967
 5454SOL     OW21208   1.165   9.750   1.687
 5454SOL    HW121209   1.131   9.762   1.775
 5454SOL    HW221210   1.128   9.824   1.637
 5455SOL     OW21211   1.232   9.503   1.588
 5455SOL    HW121212   1.200   9.586   1.624
 5455SOL    HW221213   1.193   9.499   1.501
 5456SOL     OW21214   0.176   9.916   1.681
 5456SOL    HW121215   0.272   9.917   1.677
 5456SOL    HW221216   0.148   9.910   1.590
 5457SOL     OW21217   0.700   9.941   0.210
 5457SOL    HW121218   0.732   9.851   0.214
 5457SOL    HW221219   0.665   9.957   0.298
 5458SOL     OW21220   1.602   9.926   1.184
 5458SOL    HW121221   1.552   9.905   1.263
 5458SOL    HW221222   1.670   9.859   1.180
 5459SOL     OW21223   0.715   9.769   1.219
 5459SOL    HW121224   0.664   9.689   1.209
 5459SOL    HW221225   0.694   9.822   1.143
 5460SOL     OW21226   0.894   9.391   0.082
 5460SOL    HW121227   0.888   9.370   9.989
 5460SOL    HW221228   0.969   9.339   0.113
 5461SOL     OW21229   1.744   9.487   0.499
 5461SOL    HW121230   1.804   9.462   0.429
 5461SOL    HW221231   1.716   9.404   0.537
 5462SOL     OW21232   1.834   9.458   0.958
 5462SOL    HW121233   1.860   9.368   0.937
 5462SOL    HW221234   1.746   9.466   0.920
 5463SOL     OW21235   0.229   9.634   0.729
 5463SOL    HW121236   0.147   9.674   0.702
 5463SOL    HW221237   0.219   9.621   0.823
 5464SOL     OW21238   1.015   9.534   0.955
 5464SOL    HW121239   1.018   9.475   0.880
 5464SOL    HW221240   0.990   9.478   1.029
 5465SOL     OW21241   1.806   9.663   1.431
 5465SOL    HW121242   1.828   9.752   1.404
 5465SOL    HW221243   1.807   9.612   1.350
 5466SOL     OW21244   0.669   9.454   1.445
 5466SOL    HW121245   0.752   9.439   1.401
 5466SOL    HW221246   0.653   9.374   1.496
 5467SOL     OW21247   9.955   9.633   9.953
 5467SOL    HW121248   9.861   9.645   9.942
 5467SOL    HW221249   9.994   9.711   9.914
 5468SOL     OW21250   0.121   9.388   0.273
 5468SOL    HW121251   0.158   9.473   0.296
 5468SOL    HW221252   0.112   9.343   0.357
 5469SOL     OW21253   0.733   9.924   1.681
 5469SOL    HW121254   0.803   9.969   1.728
 5469SOL    HW221255   0.727   9.838   1.722
 5470SOL     OW21256   1.212   9.630   0.460
 5470SOL    HW121257   1.273   9.558   0.479
 5470SOL    HW221258   1.224   9.691   0.532
 5471SOL     OW21259   1.741   9.662   1.699
 5471SOL    HW121260   1.765   9.662   1.606
 5471SOL    HW221261   1.657   9.615   1.702
 5472SOL     OW21262   1.144   0.324   9.986
 5472SOL    HW121263   1.120   0.408   0.025
 5472SOL    HW221264   1.237   0.313   0.008
 5473SOL     OW21265   1.805   9.468   1.235
 5473SOL    HW121266   1.787   9.374   1.241
 5473SOL    HW221267   1.813   9.485   1.142
 5474SOL     OW21268   0.472   9.681   0.597
 5474SOL    HW121269   0.467   9.766   0.552
 5474SOL    HW221270   0.396   9.680   0.655
 5475SOL     OW21271   0.362   9.813   1.309
 5475SOL    HW121272   0.285   9.852   1.350
 5475SOL    HW221273   0.385   9.875   1.239
 5476SOL     OW21274   1.410   9.524   1.091
 5476SOL    HW121275   1.372   9.442   1.122
 5476SOL    HW221276   1.386   9.588   1.157
 5477SOL     OW21277   1.341   9.333   0.094
 5477SOL    HW121278   1.396   9.254   0.095
 5477SOL    HW221279   1.257   9.304   0.128
 5478SOL     OW21280   1.270   9.795   0.668
 5478SOL    HW121281   1.312   9.880   0.684
 5478SOL    HW221282   1.264   9.754   0.754
 5479SOL     OW21283   1.570   9.471   0.873
 5479SOL    HW121284   1.517   9.497   0.948
 5479SOL    HW221285   1.582   9.552   0.823
 5480SOL     OW21286   0.287   9.578   2.862
 5480SOL    HW121287   0.287   9.534   2.947
 5480SOL    HW221288   0.209   9.633   2.863
 5481SOL     OW21289   0.054   9.675   2.471
 5481SOL    HW121290   9.959   9.669   2.479
 5481SOL    HW221291   0.075   9.622   2.394
 5482SOL     OW21292   1.676   9.916   2.096
 5482SOL    HW121293   1.723   9.918   2.012
 5482SOL    HW221294   1.652   9.824   2.107
 5483SOL     OW21295   0.310   9.644   3.400
 5483SOL    HW121296   0.348   9.697   3.330
 5483SOL    HW221297   0.249   9.585   3.356
 5484SOL     OW21298   1.625   9.769   2.580
 5484SOL    HW121299   1.603   9.830   2.509
 5484SOL    HW221300   1.578   9.803   2.656
 5485SOL     OW21301   1.590   9.379   3.383
 5485SOL    HW121302   1.576   9.441   3.313
 5485SOL    HW221303   1.579   9.430   3.463
 5486SOL     OW21304   0.124   9.926   2.388
 5486SOL    HW121305   0.106   9.839   2.423
 5486SOL    HW221306   0.090   9.986   2.454
 5487SOL     OW21307   0.856   9.308   2.412
 5487SOL    HW121308   0.917   9.325   2.340
 5487SOL    HW221309   0.772   9.342   2.380
 5488SOL     OW21310   0.315   9.532   3.649
 5488SOL    HW121311   0.323   9.566   3.559
 5488SOL    HW221312   0.247   9.587   3.689
 5489SOL     OW21313   1.364   9.606   2.858
 5489SOL    HW121314   1.271   9.595   2.836
 5489SOL    HW221315   1.377   9.553   2.936
 5490SOL     OW21316   0.881   9.860   3.320
 5490SOL    HW121317   0.843   9.885   3.404
 5490SOL    HW221318   0.807   9.857   3.260
 5491SOL     OW21319   0.971   9.685   3.138
 5491SOL    HW121320   0.953   9.747   3.209
 5491SOL    HW221321   0.890   9.682   3.087
 5492SOL     OW21322   1.016   9.936   2.191
 5492SOL    HW121323   0.998   9.973   2.277
 5492SOL    HW221324   0.930   9.918   2.154
 5493SOL     OW21325   0.079   0.094   2.596
 5493SOL    HW121326   0.160   0.081   2.647
 5493SOL    HW221327   0.021   0.142   2.655
 5494SOL     OW21328   1.612   9.879   3.669
 5494SOL    HW121329   1.543   9.828   3.626
 5494SOL    HW221330   1.693   9.837   3.641
 5495SOL     OW21331   0.572   9.469   2.816
 5495SOL    HW121332   0.542   9.495   2.903
 5495SOL    HW221333   0.582   9.552   2.769
 5496SOL     OW21334   1.414   0.002   2.598
 5496SOL    HW121335   1.430   9.955   2.680
 5496SOL    HW221336   1.461   0.085   2.609
 5497SOL     OW21337   1.431   9.381   2.293
 5497SOL    HW121338   1.413   9.352   2.204
 5497SOL    HW221339   1.386   9.465   2.302
 5498SOL     OW21340   1.494   9.456   3.677
 5498SOL    HW121341   1.559   9.482   3.743
 5498SOL    HW221342   1.479   9.535   3.626
 5499SOL     OW21343   0.734   9.611   3.597
 5499SOL    HW121344   0.822   9.573   3.604
 5499SOL    HW221345   0.703   9.616   3.688
 5500SOL     OW21346   0.930   9.802   2.760
 5500SOL    HW121347   0.905   9.779   2.670
 5500SOL    HW221348   0.983   9.729   2.790
 5501SOL     OW21349   0.589   9.380   2.333
 5501SOL    HW121350   0.519   9.382   2.399
 5501SOL    HW221351   0.586   9.466   2.291
 5502SOL     OW21352   0.341   9.291   1.985
 5502SOL    HW121353   0.404   9.307   1.915
 5502SOL    HW221354   0.393   9.258   2.058
 5503SOL     OW21355   1.130   9.871   3.497
 5503SOL    HW121356   1.073   9.873   3.420
 5503SOL    HW221357   1.218   9.864   3.461
 5504SOL     OW21358   1.063   9.820   1.928
 5504SOL    HW121359   1.055   9.873   2.008
 5504SOL    HW221360   1.022   9.736   1.951
 5505SOL     OW21361   0.524   9.522   3.093
 5505SOL    HW121362   0.543   9.429   3.109
 5505SOL    HW221363   0.430   9.530   3.109
 5506SOL     OW21364   0.886   9.769   2.493
 5506SOL    HW121365   0.869   9.858   2.463
 5506SOL    HW221366   0.866   9.714   2.418
 5507SOL     OW21367   1.046   9.379   2.600
 5507SOL    HW121368   0.983   9.379   2.528
 5507SOL    HW221369   1.019   9.306   2.656
 5508SOL     OW21370   1.485   9.848   2.810
 5508SOL    HW121371   1.440   9.766   2.833
 5508SOL    HW221372   1.519   9.880   2.894
 5509SOL     OW21373   0.537   9.626   2.221
 5509SOL    HW121374   0.614   9.622   2.164
 5509SOL    HW221375   0.467   9.655   2.163
 5510SOL     OW21376   0.583   9.736   2.733
 5510SOL    HW121377   0.577   9.749   2.639
 5510SOL    HW221378   0.531   9.808   2.770
 5511SOL     OW21379   1.599   9.948   2.359
 5511SOL    HW121380   1.519   0.001   2.360
 5511SOL    HW221381   1.621   9.941   2.266
 5512SOL     OW21382   0.991   9.503   3.633
 5512SOL    HW121383   1.030   9.587   3.658
 5512SOL    HW221384   1.039   9.477   3.555
 5513SOL     OW21385   0.497   9.328   3.653
 5513SOL    HW121386   0.456   9.272   3.588
 5513SOL    HW221387   0.446   9.409   3.651
 5514SOL     OW21388   1.285   9.855   2.175
 5514SOL    HW121389   1.285   9.763   2.201
 5514SOL    HW221390   1.194   9.884   2.186
 5515SOL     OW21391   0.719   9.962   2.888
 5515SOL    HW121392   0.767   9.904   2.828
 5515SOL    HW221393   0.679   0.028   2.831
 5516SOL     OW21394   0.357   9.406   2.484
 5516SOL    HW121395   0.344   9.492   2.524
 5516SOL    HW221396   0.343   9.344   2.555
 5517SOL     OW21397   1.596   9.667   2.190
 5517SOL    HW121398   1.658   9.619   2.245
 5517SOL    HW221399   1.530   9.700   2.251
 5518SOL     OW21400   1.512   9.534   1.959
 5518SOL    HW121401   1.444   9.476   1.995
 5518SOL    HW221402   1.543   9.584   2.034
 5519SOL     OW21403   0.324   0.063   2.722
 5519SOL    HW121404   0.408   0.107   2.732
 5519SOL    HW221405   0.328   9.989   2.783
 5520SOL     OW21406   0.357   9.848   2.900
 5520SOL    HW121407   0.273   9.854   2.946
 5520SOL    HW221408   0.365   9.756   2.875
 5521SOL     OW21409   0.142   9.832   3.522
 5521SOL    HW121410   0.199   9.773   3.474
 5521SOL    HW221411   0.166   9.919   3.491
 5522SOL     OW21412   0.759   9.878   2.104
 5522SOL    HW121413   0.763   9.784   2.086
 5522SOL    HW221414   0.696   9.886   2.176
 5523SOL     OW21415   1.597   9.935   3.052
 5523SOL    HW121416   1.574   9.900   3.138
 5523SOL    HW221417   1.678   9.889   3.028
 5524SOL     OW21418   0.706   9.750   3.086
 5524SOL    HW121419   0.635   9.686   3.080
 5524SOL    HW221420   0.688   9.811   3.014
 5525SOL     OW21421   1.780   9.506   2.327
 5525SOL    HW121422   1.839   9.484   2.254
 5525SOL    HW221423   1.727   9.427   2.339
 5526SOL     OW21424   1.834   9.467   2.846
 5526SOL    HW121425   1.864   9.384   2.808
 5526SOL    HW221426   1.750   9.484   2.804
 5527SOL     OW21427   0.299   9.646   2.593
 5527SOL    HW121428   0.208   9.670   2.572
 5527SOL    HW221429   0.297   9.628   2.687
 5528SOL     OW21430   1.094   9.566   2.799
 5528SOL    HW121431   1.081   9.520   2.717
 5528SOL    HW221432   1.077   9.501   2.867
 5529SOL     OW21433   1.795   9.628   3.265
 5529SOL    HW121434   1.810   9.722   3.257
 5529SOL    HW221435   1.704   9.616   3.239
 5530SOL     OW21436   0.672   9.472   3.356
 5530SOL    HW121437   0.631   9.533   3.294
 5530SOL    HW221438   0.684   9.523   3.436
 5531SOL     OW21439   0.070   9.683   1.799
 5531SOL    HW121440   0.046   9.699   1.890
 5531SOL    HW221441   0.090   9.769   1.764
 5532SOL     OW21442   0.103   9.425   2.047
 5532SOL    HW121443   0.124   9.469   2.130
 5532SOL    HW221444   0.186   9.388   2.018
 5533SOL     OW21445   0.744   9.893   3.552
 5533SOL    HW121446   0.709   9.938   3.629
 5533SOL    HW221447   0.723   9.801   3.567
 5534SOL     OW21448   1.260   9.597   2.297
 5534SOL    HW121449   1.175   9.555   2.288
 5534SOL    HW221450   1.253   9.650   2.376
 5535SOL     OW21451   1.753   9.665   3.540
 5535SOL    HW121452   1.774   9.651   3.448
 5535SOL    HW221453   1.658   9.666   3.543
 5536SOL     OW21454   1.088   0.243   1.960
 5536SOL    HW121455   1.102   0.332   1.928
 5536SOL    HW221456   1.166   0.225   2.012
 5537SOL     OW21457   1.857   9.401   3.114
 5537SOL    HW121458   1.823   9.474   3.166
 5537SOL    HW221459   1.848   9.429   3.023
 5538SOL     OW21460   0.518   9.758   2.467
 5538SOL    HW121461   0.526   9.716   2.381
 5538SOL    HW221462   0.434   9.727   2.500
 5539SOL     OW21463   0.380   9.805   3.190
 5539SOL    HW121464   0.290   9.796   3.161
 5539SOL    HW221465   0.429   9.830   3.112
 5540SOL     OW21466   1.092   9.349   2.978
 5540SOL    HW121467   1.010   9.301   2.962
 5540SOL    HW221468   1.160   9.291   2.943
 5541SOL     OW21469   1.313   9.357   2.041
 5541SOL    HW121470   1.284   9.307   1.965
 5541SOL    HW221471   1.233   9.376   2.090
 5542SOL     OW21472   1.276   9.768   2.514
 5542SOL    HW121473   1.321   9.852   2.519
 5542SOL    HW221474   1.224   9.764   2.594
 5543SOL     OW21475   1.590   9.516   2.727
 5543SOL    HW121476   1.509   9.548   2.768
 5543SOL    HW221477   1.607   9.578   2.657
 5544SOL     OW21478   0.260   9.584   4.748
 5544SOL    HW121479   0.227   9.671   4.770
 5544SOL    HW221480   0.190   9.524   4.773
 5545SOL     OW21481   0.059   9.736   4.339
 5545SOL    HW121482   9.967   9.733   4.313
 5545SOL    HW221483   0.100   9.665   4.289
 5546SOL     OW21484   1.760   9.952   3.898
 5546SOL    HW121485   1.704   9.937   3.822
 5546SOL    HW221486   1.737   9.883   3.960
 5547SOL     OW21487   1.607   9.743   4.392
 5547SOL    HW121488   1.514   9.721   4.395
 5547SOL    HW221489   1.612   9.832   4.425
 5548SOL     OW21490   1.557   9.448   5.192
 5548SOL    HW121491   1.575   9.466   5.100
 5548SOL    HW221492   1.509   9.525   5.223
 5549SOL     OW21493   0.817   9.316   4.258
 5549SOL    HW121494   0.847   9.401   4.226
 5549SOL    HW221495   0.722   9.326   4.268
 5550SOL     OW21496   0.341   9.515   5.520
 5550SOL    HW121497   0.347   9.602   5.558
 5550SOL    HW221498   0.303   9.529   5.433
 5551SOL     OW21499   1.382   9.789   5.366
 5551SOL    HW121500   1.295   9.755   5.391
 5551SOL    HW221501   1.444   9.726   5.404
 5552SOL     OW21502   1.091   9.978   4.194
 5552SOL    HW121503   1.139   0.022   4.265
 5552SOL    HW221504   0.999  10.000   4.211
 5553SOL     OW21505   0.043   0.074   4.500
 5553SOL    HW121506   0.122   0.089   4.551
 5553SOL    HW221507   0.019   0.160   4.467
 5554SOL     OW21508   0.866   9.561   3.878
 5554SOL    HW121509   0.895   9.651   3.860
 5554SOL    HW221510   0.913   9.508   3.814
 5555SOL     OW21511   1.718   9.910   5.464
 5555SOL    HW121512   1.680   9.972   5.402
 5555SOL    HW221513   1.727   9.829   5.415
 5556SOL     OW21514   1.558   9.998   4.494
 5556SOL    HW121515   1.508   9.950   4.561
 5556SOL    HW221516   1.588   0.077   4.540
 5557SOL     OW21517   0.267   9.643   5.283
 5557SOL    HW121518   0.344   9.672   5.235
 5557SOL    HW221519   0.196   9.643   5.218
 5558SOL     OW21520   1.429   9.438   4.197
 5558SOL    HW121521   1.415   9.420   4.104
 5558SOL    HW221522   1.521   9.464   4.203
 5559SOL     OW21523   1.549   9.580   5.455
 5559SOL    HW121524   1.549   9.581   5.550
 5559SOL    HW221525   1.529   9.489   5.431
 5560SOL     OW21526   0.618   9.407   3.910
 5560SOL    HW121527   0.696   9.459   3.895
 5560SOL    HW221528   0.581   9.394   3.822
 5561SOL     OW21529   0.753   9.533   5.454
 5561SOL    HW121530   0.842   9.505   5.475
 5561SOL    HW221531   0.698   9.493   5.521
 5562SOL     OW21532   1.338   9.969   5.168
 5562SOL    HW121533   1.359   9.911   5.241
 5562SOL    HW221534   1.314   0.052   5.210
 5563SOL     OW21535   0.901   9.823   4.660
 5563SOL    HW121536   0.809   9.828   4.631
 5563SOL    HW221537   0.936   9.748   4.614
 5564SOL     OW21538   0.537   9.350   4.277
 5564SOL    HW121539   0.471   9.339   4.345
 5564SOL    HW221540   0.509   9.428   4.229
 5565SOL     OW21541   0.282   9.381   3.881
 5565SOL    HW121542   0.298   9.431   3.801
 5565SOL    HW221543   0.290   9.290   3.853
 5566SOL     OW21544   0.938   9.552   4.158
 5566SOL    HW121545   0.916   9.554   4.065
 5566SOL    HW221546   1.032   9.571   4.161
 5567SOL     OW21547   1.058   9.936   5.235
 5567SOL    HW121548   1.004   9.994   5.181
 5567SOL    HW221549   1.144   9.938   5.193
 5568SOL     OW21550   1.045   9.748   3.744
 5568SOL    HW121551   1.067   9.808   3.673
 5568SOL    HW221552   1.087   9.786   3.821
 5569SOL     OW21553   0.105   9.880   5.063
 5569SOL    HW121554   0.198   9.868   5.083
 5569SOL    HW221555   0.084   9.967   5.097
 5570SOL     OW21556   0.926   9.704   4.401
 5570SOL    HW121557   0.845   9.754   4.400
 5570SOL    HW221558   0.925   9.655   4.318
 5571SOL     OW21559   1.040   9.327   4.436
 5571SOL    HW121560   0.963   9.324   4.378
 5571SOL    HW221561   1.025   9.255   4.497
 5572SOL     OW21562   1.449   9.849   4.703
 5572SOL    HW121563   1.437   9.762   4.741
 5572SOL    HW221564   1.513   9.892   4.759
 5573SOL     OW21565   0.467   9.566   4.098
 5573SOL    HW121566   0.511   9.507   4.037
 5573SOL    HW221567   0.421   9.628   4.043
 5574SOL     OW21568   0.934   9.377   5.094
 5574SOL    HW121569   0.854   9.428   5.108
 5574SOL    HW221570   1.003   9.431   5.132
 5575SOL     OW21571   1.290   9.703   5.050
 5575SOL    HW121572   1.316   9.794   5.069
 5575SOL    HW221573   1.345   9.678   4.976
 5576SOL     OW21574   0.651   9.833   4.545
 5576SOL    HW121575   0.600   9.810   4.468
 5576SOL    HW221576   0.589   9.876   4.604
 5577SOL     OW21577   1.574   0.019   4.214
 5577SOL    HW121578   1.560   0.012   4.309
 5577SOL    HW221579   1.651   0.075   4.206
 5578SOL     OW21580   1.013   9.475   5.522
 5578SOL    HW121581   1.058   9.550   5.482
 5578SOL    HW221582   1.063   9.399   5.492
 5579SOL     OW21583   0.494   9.290   5.442
 5579SOL    HW121584   0.483   9.256   5.354
 5579SOL    HW221585   0.428   9.359   5.449
 5580SOL     OW21586   1.168   9.819   3.988
 5580SOL    HW121587   1.193   9.743   4.040
 5580SOL    HW221588   1.133   9.881   4.052
 5581SOL     OW21589   0.313   9.343   4.459
 5581SOL    HW121590   0.290   9.433   4.434
 5581SOL    HW221591   0.243   9.316   4.518
 5582SOL     OW21592   1.639   9.772   4.089
 5582SOL    HW121593   1.661   9.720   4.166
 5582SOL    HW221594   1.605   9.854   4.124
 5583SOL     OW21595   1.614   9.554   3.906
 5583SOL    HW121596   1.532   9.520   3.941
 5583SOL    HW221597   1.630   9.634   3.956
 5584SOL     OW21598   0.290   0.127   4.634
 5584SOL    HW121599   0.338   0.176   4.567
 5584SOL    HW221600   0.354   0.066   4.670
 5585SOL     OW21601   1.107   9.716   5.401
 5585SOL    HW121602   1.088   9.752   5.488
 5585SOL    HW221603   1.073   9.782   5.340
 5586SOL     OW21604   1.142   9.527   5.199
 5586SOL    HW121605   1.126   9.588   5.272
 5586SOL    HW221606   1.194   9.579   5.137
 5587SOL     OW21607   0.156   9.832   4.797
 5587SOL    HW121608   0.233   9.887   4.784
 5587SOL    HW221609   0.132   9.845   4.889
 5588SOL     OW21610   0.216   9.775   5.537
 5588SOL    HW121611   0.236   9.788   5.444
 5588SOL    HW221612   0.210   9.863   5.573
 5589SOL     OW21613   0.724   9.869   3.997
 5589SOL    HW121614   0.752   9.792   4.047
 5589SOL    HW221615   0.679   9.924   4.061
 5590SOL     OW21616   1.650   9.923   4.891
 5590SOL    HW121617   1.636   9.851   4.952
 5590SOL    HW221618   1.733   9.902   4.848
 5591SOL     OW21619   1.715   9.470   4.181
 5591SOL    HW121620   1.764   9.472   4.099
 5591SOL    HW221621   1.721   9.380   4.211
 5592SOL     OW21622   0.301   9.657   4.479
 5592SOL    HW121623   0.217   9.695   4.455
 5592SOL    HW221624   0.293   9.638   4.573
 5593SOL     OW21625   1.068   9.527   4.644
 5593SOL    HW121626   1.047   9.501   4.555
 5593SOL    HW221627   1.002   9.484   4.699
 5594SOL     OW21628   1.760   9.687   5.059
 5594SOL    HW121629   1.827   9.702   4.992
 5594SOL    HW221630   1.699   9.625   5.019
 5595SOL     OW21631   0.715   9.552   5.172
 5595SOL    HW121632   0.726   9.537   5.266
 5595SOL    HW221633   0.625   9.584   5.164
 5596SOL     OW21634   0.114   9.689   3.756
 5596SOL    HW121635   0.038   9.632   3.754
 5596SOL    HW221636   0.102   9.750   3.683
 5597SOL     OW21637   0.088   9.533   4.000
 5597SOL    HW121638   0.019   9.528   3.934
 5597SOL    HW221639   0.160   9.483   3.962
 5598SOL     OW21640   0.761   9.801   5.379
 5598SOL    HW121641   0.715   9.857   5.442
 5598SOL    HW221642   0.751   9.713   5.414
 5599SOL     OW21643   1.214   9.624   4.191
 5599SOL    HW121644   1.284   9.558   4.190
 5599SOL    HW221645   1.233   9.677   4.269
 5600SOL     OW21646   1.792   9.663   5.342
 5600SOL    HW121647   1.781   9.668   5.247
 5600SOL    HW221648   1.711   9.622   5.374
 5601SOL     OW21649   1.105   0.221   3.831
 5601SOL    HW121650   1.079   0.195   3.743
 5601SOL    HW221651   1.176   0.161   3.854
 5602SOL     OW21652   0.499   9.758   4.316
 5602SOL    HW121653   0.494   9.697   4.242
 5602SOL    HW221654   0.429   9.728   4.375
 5603SOL     OW21655   1.092   9.286   4.870
 5603SOL    HW121656   1.067   9.194   4.866
 5603SOL    HW221657   1.038   9.322   4.940
 5604SOL     OW21658   1.376   9.403   3.932
 5604SOL    HW121659   1.389   9.416   3.838
 5604SOL    HW221660   1.300   9.345   3.938
 5605SOL     OW21661   1.291   9.756   4.444
 5605SOL    HW121662   1.197   9.777   4.449
 5605SOL    HW221663   1.328   9.792   4.524
 5606SOL     OW21664   0.157   9.588   6.627
 5606SOL    HW121665   0.218   9.557   6.694
 5606SOL    HW221666   0.071   9.558   6.658
 5607SOL     OW21667   0.015   9.653   6.215
 5607SOL    HW121668   0.013   9.749   6.225
 5607SOL    HW221669   0.012   9.639   6.121
 5608SOL     OW21670   1.799   9.904   5.724
 5608SOL    HW121671   1.759   9.917   5.638
 5608SOL    HW221672   1.725   9.885   5.782
 5609SOL     OW21673   0.424   9.641   7.148
 5609SOL    HW121674   0.493   9.613   7.088
 5609SOL    HW221675   0.343   9.628   7.099
 5610SOL     OW21676   1.644   9.725   6.335
 5610SOL    HW121677   1.622   9.772   6.255
 5610SOL    HW221678   1.599   9.773   6.405
 5611SOL     OW21679   1.554   9.451   7.020
 5611SOL    HW121680   1.619   9.518   6.998
 5611SOL    HW221681   1.529   9.471   7.110
 5612SOL     OW21682   0.029   9.934   6.206
 5612SOL    HW121683   0.024   9.938   6.110
 5612SOL    HW221684   0.116   9.967   6.227
 5613SOL     OW21685   0.849   9.334   6.096
 5613SOL    HW121686   0.884   9.417   6.064
 5613SOL    HW221687   0.755   9.348   6.100
 5614SOL     OW21688   0.367   9.555   7.397
 5614SOL    HW121689   0.400   9.595   7.316
 5614SOL    HW221690   0.277   9.586   7.404
 5615SOL     OW21691   1.286   9.663   6.533
 5615SOL    HW121692   1.197   9.628   6.534
 5615SOL    HW221693   1.333   9.608   6.596
 5616SOL     OW21694   0.850   9.848   7.014
 5616SOL    HW121695   0.806   9.852   7.099
 5616SOL    HW221696   0.778   9.849   6.951
 5617SOL     OW21697   1.429   9.764   7.282
 5617SOL    HW121698   1.495   9.813   7.332
 5617SOL    HW221699   1.459   9.673   7.287
 5618SOL     OW21700   1.065   9.718   6.892
 5618SOL    HW121701   0.988   9.761   6.931
 5618SOL    HW221702   1.048   9.719   6.798
 5619SOL     OW21703   1.026  10.000   5.974
 5619SOL    HW121704   1.004   0.084   6.013
 5619SOL    HW221705   0.941   9.960   5.955
 5620SOL     OW21706   0.052   0.172   6.444
 5620SOL    HW121707   0.144   0.150   6.458
 5620SOL    HW221708   0.052   0.231   6.368
 5621SOL     OW21709   0.903   9.634   5.740
 5621SOL    HW121710   0.953   9.708   5.705
 5621SOL    HW221711   0.926   9.560   5.684
 5622SOL     OW21712   1.643   9.910   7.394
 5622SOL    HW121713   1.624   0.003   7.379
 5622SOL    HW221714   1.714   9.890   7.333
 5623SOL     OW21715   0.629   9.499   6.460
 5623SOL    HW121716   0.613   9.556   6.535
 5623SOL    HW221717   0.598   9.550   6.385
 5624SOL     OW21718   1.455   9.996   6.303
 5624SOL    HW121719   1.471   9.956   6.389
 5624SOL    HW221720   1.479   0.088   6.314
 5625SOL     OW21721   0.168   9.586   7.036
 5625SOL    HW121722   0.146   9.676   7.012
 5625SOL    HW221723   0.084   9.545   7.057
 5626SOL     OW21724   1.389   9.430   6.029
 5626SOL    HW121725   1.390   9.390   5.942
 5626SOL    HW221726   1.459   9.495   6.027
 5627SOL     OW21727   1.504   9.497   7.298
 5627SOL    HW121728   1.518   9.516   7.391
 5627SOL    HW221729   1.437   9.429   7.297
 5628SOL     OW21730   0.626   9.382   5.664
 5628SOL    HW121731   0.665   9.300   5.694
 5628SOL    HW221732   0.570   9.356   5.591
 5629SOL     OW21733   0.768   9.583   7.332
 5629SOL    HW121734   0.851   9.536   7.333
 5629SOL    HW221735   0.721   9.551   7.408
 5630SOL     OW21736   0.909   9.792   6.479
 5630SOL    HW121737   0.884   9.781   6.387
 5630SOL    HW221738   0.950   9.708   6.503
 5631SOL     OW21739   0.579   9.366   6.086
 5631SOL    HW121740   0.518   9.371   6.160
 5631SOL    HW221741   0.563   9.446   6.036
 5632SOL     OW21742   0.248   9.383   5.754
 5632SOL    HW121743   0.285   9.426   5.677
 5632SOL    HW221744   0.322   9.339   5.796
 5633SOL     OW21745   0.939   9.581   6.011
 5633SOL    HW121746   0.919   9.603   5.920
 5633SOL    HW221747   1.030   9.606   6.023
 5634SOL     OW21748   1.087   9.979   7.095
 5634SOL    HW121749   1.008   9.942   7.056
 5634SOL    HW221750   1.084   0.072   7.072
 5635SOL     OW21751   1.052   9.840   5.638
 5635SOL    HW121752   1.032   9.928   5.604
 5635SOL    HW221753   1.115   9.856   5.708
 5636SOL     OW21754   0.136   9.853   6.980
 5636SOL    HW121755   0.221   9.882   6.947
 5636SOL    HW221756   0.136   9.878   7.072
 5637SOL     OW21757   0.579   9.586   6.733
 5637SOL    HW121758   0.628   9.507   6.757
 5637SOL    HW221759   0.489   9.568   6.761
 5638SOL     OW21760   0.852   9.782   6.214
 5638SOL    HW121761   0.835   9.869   6.177
 5638SOL    HW221762   0.869   9.727   6.138
 5639SOL     OW21763   1.031   9.362   6.319
 5639SOL    HW121764   0.972   9.371   6.244
 5639SOL    HW221765   0.993   9.291   6.371
 5640SOL     OW21766   1.494   9.849   6.527
 5640SOL    HW121767   1.418   9.796   6.549
 5640SOL    HW221768   1.525   9.883   6.611
 5641SOL     OW21769   0.554   9.552   5.876
 5641SOL    HW121770   0.575   9.497   5.801
 5641SOL    HW221771   0.611   9.629   5.867
 5642SOL     OW21772   0.925   9.370   6.957
 5642SOL    HW121773   0.947   9.357   6.864
 5642SOL    HW221774   0.999   9.419   6.992
 5643SOL     OW21775   0.514   9.877   6.438
 5643SOL    HW121776   0.524   9.807   6.373
 5643SOL    HW221777   0.544   9.955   6.393
 5644SOL     OW21778   1.600   9.880   6.100
 5644SOL    HW121779   1.532   9.922   6.153
 5644SOL    HW221780   1.654   9.952   6.068
 5645SOL     OW21781   1.006   9.449   7.347
 5645SOL    HW121782   1.068   9.521   7.336
 5645SOL    HW221783   1.058   9.370   7.331
 5646SOL     OW21784   0.517   9.330   7.391
 5646SOL    HW121785   0.468   9.288   7.320
 5646SOL    HW221786   0.483   9.419   7.394
 5647SOL     OW21787   1.221   9.861   5.856
 5647SOL    HW121788   1.232   9.781   5.906
 5647SOL    HW221789   1.159   9.913   5.906
 5648SOL     OW21790   0.333   9.512   6.831
 5648SOL    HW121791   0.275   9.536   6.904
 5648SOL    HW221792   0.321   9.418   6.822
 5649SOL     OW21793   0.747   9.973   6.624
 5649SOL    HW121794   0.784   9.913   6.560
 5649SOL    HW221795   0.693   0.033   6.572
 5650SOL     OW21796   0.371   9.366   6.274
 5650SOL    HW121797   0.347   9.449   6.316
 5650SOL    HW221798   0.301   9.349   6.211
 5651SOL     OW21799   1.587   9.623   5.993
 5651SOL    HW121800   1.656   9.583   6.045
 5651SOL    HW221801   1.581   9.713   6.026
 5652SOL     OW21802   1.544   9.551   5.726
 5652SOL    HW121803   1.484   9.478   5.740
 5652SOL    HW221804   1.557   9.589   5.813
 5653SOL     OW21805   0.311   0.097   6.516
 5653SOL    HW121806   0.398   0.139   6.514
 5653SOL    HW221807   0.324   0.018   6.568
 5654SOL     OW21808   0.311   9.831   6.619
 5654SOL    HW121809   0.265   9.748   6.602
 5654SOL    HW221810   0.383   9.832   6.556
 5655SOL     OW21811   1.169   9.666   7.288
 5655SOL    HW121812   1.116   9.714   7.351
 5655SOL    HW221813   1.257   9.702   7.298
 5656SOL     OW21814   1.139   9.515   7.058
 5656SOL    HW121815   1.146   9.565   7.139
 5656SOL    HW221816   1.124   9.580   6.990
 5657SOL     OW21817   0.054   9.924   6.711
 5657SOL    HW121818   0.139   9.900   6.675
 5657SOL    HW221819   0.057   9.896   6.802
 5658SOL     OW21820   0.205   9.895   7.249
 5658SOL    HW121821   0.300   9.892   7.247
 5658SOL    HW221822   0.184   9.981   7.286
 5659SOL     OW21823   0.791   9.888   5.884
 5659SOL    HW121824   0.802   9.825   5.812
 5659SOL    HW221825   0.745   9.962   5.845
 5660SOL     OW21826   0.641   9.835   6.833
 5660SOL    HW121827   0.622   9.749   6.795
 5660SOL    HW221828   0.673   9.887   6.759
 5661SOL     OW21829   1.784   9.464   6.111
 5661SOL    HW121830   1.829   9.443   6.028
 5661SOL    HW221831   1.748   9.380   6.140
 5662SOL     OW21832   1.875   9.446   6.553
 5662SOL    HW121833   1.885   9.360   6.514
 5662SOL    HW221834   1.790   9.477   6.522
 5663SOL     OW21835   0.242   9.595   6.364
 5663SOL    HW121836   0.165   9.613   6.310
 5663SOL    HW221837   0.208   9.588   6.453
 5664SOL     OW21838   1.037   9.543   6.536
 5664SOL    HW121839   1.037   9.498   6.452
 5664SOL    HW221840   1.020   9.473   6.600
 5665SOL     OW21841   1.767   9.627   6.991
 5665SOL    HW121842   1.780   9.708   6.941
 5665SOL    HW221843   1.804   9.558   6.937
 5666SOL     OW21844   0.688   9.471   7.078
 5666SOL    HW121845   0.771   9.449   7.036
 5666SOL    HW221846   0.713   9.518   7.158
 5667SOL     OW21847  10.001   9.603   5.540
 5667SOL    HW121848   9.992   9.576   5.449
 5667SOL    HW221849   0.073   9.667   5.539
 5668SOL     OW21850   9.990   9.525   5.912
 5668SOL    HW121851   0.014   9.609   5.871
 5668SOL    HW221852   0.043   9.460   5.866
 5669SOL     OW21853   0.744   9.859   7.275
 5669SOL    HW121854   0.819   9.900   7.318
 5669SOL    HW221855   0.751   9.766   7.299
 5670SOL     OW21856   1.208   9.644   6.036
 5670SOL    HW121857   1.263   9.566   6.036
 5670SOL    HW221858   1.232   9.690   6.117
 5671SOL     OW21859   1.771   9.617   7.269
 5671SOL    HW121860   1.783   9.633   7.176
 5671SOL    HW221861   1.688   9.570   7.275
 5672SOL     OW21862   1.139   0.245   5.653
 5672SOL    HW121863   1.133   0.332   5.615
 5672SOL    HW221864   1.095   0.188   5.589
 5673SOL     OW21865   1.842   9.419   6.831
 5673SOL    HW121866   1.808   9.332   6.809
 5673SOL    HW221867   1.866   9.458   6.747
 5674SOL     OW21868   0.491   9.663   6.264
 5674SOL    HW121869   0.486   9.688   6.172
 5674SOL    HW221870   0.401   9.647   6.290
 5675SOL     OW21871   0.378   9.921   6.869
 5675SOL    HW121872   0.470   9.898   6.880
 5675SOL    HW221873   0.355   9.890   6.782
 5676SOL     OW21874   1.463   9.533   6.716
 5676SOL    HW121875   1.466   9.483   6.798
 5676SOL    HW221876   1.463   9.624   6.744
 5677SOL     OW21877   1.011   9.307   6.694
 5677SOL    HW121878   0.955   9.250   6.641
 5677SOL    HW221879   1.099   9.271   6.682
 5678SOL     OW21880   1.390   9.326   5.772
 5678SOL    HW121881   1.432   9.256   5.722
 5678SOL    HW221882   1.301   9.295   5.787
 5679SOL     OW21883   1.300   9.760   6.266
 5679SOL    HW121884   1.334   9.849   6.272
 5679SOL    HW221885   1.297   9.730   6.357
 5680SOL     OW21886   1.609   9.486   6.480
 5680SOL    HW121887   1.557   9.519   6.554
 5680SOL    HW221888   1.612   9.559   6.419
 5681SOL     OW21889   0.157   9.611   8.505
 5681SOL    HW121890   0.202   9.563   8.575
 5681SOL    HW221891   0.064   9.597   8.523
 5682SOL     OW21892   9.997   9.705   8.171
 5682SOL    HW121893   9.955   9.760   8.237
 5682SOL    HW221894   9.926   9.679   8.112
 5683SOL     OW21895   1.708   9.916   7.669
 5683SOL    HW121896   1.686   9.913   7.576
 5683SOL    HW221897   1.679   9.831   7.703
 5684SOL     OW21898   0.447   9.712   8.925
 5684SOL    HW121899   0.539   9.684   8.926
 5684SOL    HW221900   0.397   9.630   8.930
 5685SOL     OW21901   1.626   9.732   8.188
 5685SOL    HW121902   1.543   9.764   8.153
 5685SOL    HW221903   1.668   9.809   8.226
 5686SOL     OW21904   1.655   9.423   8.923
 5686SOL    HW121905   1.690   9.496   8.871
 5686SOL    HW221906   1.570   9.455   8.954
 5687SOL     OW21907   0.087   9.911   8.013
 5687SOL    HW121908   0.063   9.837   8.068
 5687SOL    HW221909   0.007   9.963   8.006
 5688SOL     OW21910   0.808   9.357   7.859
 5688SOL    HW121911   0.866   9.429   7.884
 5688SOL    HW221912   0.732   9.367   7.916
 5689SOL     OW21913   0.366   9.553   9.233
 5689SOL    HW121914   0.418   9.623   9.272
 5689SOL    HW221915   0.276   9.572   9.260
 5690SOL     OW21916   1.287   9.689   8.389
 5690SOL    HW121917   1.200   9.650   8.383
 5690SOL    HW221918   1.340   9.624   8.435
 5691SOL     OW21919   0.854   9.838   8.856
 5691SOL    HW121920   0.815   9.838   8.943
 5691SOL    HW221921   0.780   9.828   8.796
 5692SOL     OW21922   1.029   9.791   8.648
 5692SOL    HW121923   0.968   9.798   8.721
 5692SOL    HW221924   0.973   9.778   8.571
 5693SOL     OW21925   1.103   9.978   7.893
 5693SOL    HW121926   1.168   0.046   7.914
 5693SOL    HW221927   1.022   0.008   7.934
 5694SOL     OW21928   0.031   0.130   8.273
 5694SOL    HW121929   0.124   0.113   8.288
 5694SOL    HW221930   0.029   0.187   8.197
 5695SOL     OW21931   0.866   9.662   7.653
 5695SOL    HW121932   0.921   9.696   7.583
 5695SOL    HW221933   0.815   9.592   7.612
 5696SOL     OW21934   1.586   9.861   9.242
 5696SOL    HW121935   1.605   9.900   9.327
 5696SOL    HW221936   1.665   9.812   9.220
 5697SOL     OW21937   0.542   9.496   8.354
 5697SOL    HW121938   0.544   9.523   8.446
 5697SOL    HW221939   0.520   9.576   8.306
 5698SOL     OW21940   0.190   9.556   8.957
 5698SOL    HW121941   0.197   9.635   9.012
 5698SOL    HW221942   0.176   9.485   9.020
 5699SOL     OW21943   1.412   9.422   7.906
 5699SOL    HW121944   1.409   9.386   7.817
 5699SOL    HW221945   1.506   9.435   7.923
 5700SOL     OW21946   1.445   9.520   9.133
 5700SOL    HW121947   1.460   9.522   9.228
 5700SOL    HW221948   1.388   9.444   9.120
 5701SOL     OW21949   0.686   9.455   7.582
 5701SOL    HW121950   0.726   9.402   7.650
 5701SOL    HW221951   0.638   9.393   7.528
 5702SOL     OW21952   0.754   9.569   9.192
 5702SOL    HW121953   0.846   9.543   9.193
 5702SOL    HW221954   0.715   9.524   9.267
 5703SOL     OW21955   1.474   9.863   8.894
 5703SOL    HW121956   1.462   9.835   8.804
 5703SOL    HW221957   1.502   9.954   8.888
 5704SOL     OW21958   0.932   9.786   8.356
 5704SOL    HW121959   0.900   9.779   8.266
 5704SOL    HW221960   0.974   9.702   8.373
 5705SOL     OW21961   0.557   9.393   7.976
 5705SOL    HW121962   0.484   9.364   8.031
 5705SOL    HW221963   0.552   9.489   7.978
 5706SOL     OW21964   0.314   9.299   7.598
 5706SOL    HW121965   0.373   9.330   7.530
 5706SOL    HW221966   0.371   9.262   7.665
 5707SOL     OW21967   0.963   9.596   7.901
 5707SOL    HW121968   0.936   9.622   7.813
 5707SOL    HW221969   1.058   9.608   7.901
 5708SOL     OW21970   1.082   9.956   8.965
 5708SOL    HW121971   1.003   9.923   8.922
 5708SOL    HW221972   1.095   0.043   8.929
 5709SOL     OW21973   1.036   9.802   7.483
 5709SOL    HW121974   1.008   9.888   7.454
 5709SOL    HW221975   1.096   9.819   7.555
 5710SOL     OW21976   0.098   9.879   8.829
 5710SOL    HW121977   0.190   9.887   8.803
 5710SOL    HW221978   0.101   9.855   8.921
 5711SOL     OW21979   0.540   9.544   8.628
 5711SOL    HW121980   0.593   9.485   8.682
 5711SOL    HW221981   0.450   9.527   8.654
 5712SOL     OW21982   0.870   9.778   8.093
 5712SOL    HW121983   0.868   9.858   8.042
 5712SOL    HW221984   0.896   9.710   8.031
 5713SOL     OW21985   0.995   9.324   8.187
 5713SOL    HW121986   0.932   9.296   8.121
 5713SOL    HW221987   0.993   9.255   8.253
 5714SOL     OW21988   1.456   9.811   8.616
 5714SOL    HW121989   1.407   9.809   8.533
 5714SOL    HW221990   1.548   9.806   8.590
 5715SOL     OW21991   0.469   9.624   7.705
 5715SOL    HW121992   0.544   9.579   7.665
 5715SOL    HW221993   0.495   9.636   7.796
 5716SOL     OW21994   0.932   9.395   8.843
 5716SOL    HW121995   0.959   9.376   8.752
 5716SOL    HW221996   1.003   9.450   8.877
 5717SOL     OW21997   1.254   9.650   8.727
 5717SOL    HW121998   1.326   9.704   8.695
 5717SOL    HW221999   1.175   9.694   8.697
 5718SOL     OW22000   0.506   9.799   8.250
 5718SOL    HW122001   0.479   9.874   8.198
 5718SOL    HW222002   0.577   9.831   8.305
 5719SOL     OW22003   1.577   9.937   7.932
 5719SOL    HW122004   1.609   9.959   8.019
 5719SOL    HW222005   1.652   9.952   7.874
 5720SOL     OW22006   1.015   9.474   9.201
 5720SOL    HW122007   1.054   9.497   9.117
 5720SOL    HW222008   1.063   9.396   9.229
 5721SOL     OW22009   0.494   9.317   9.179
 5721SOL    HW122010   0.440   9.271   9.115
 5721SOL    HW222011   0.448   9.399   9.195
 5722SOL     OW22012   1.214   9.839   7.690
 5722SOL    HW122013   1.241   9.759   7.735
 5722SOL    HW222014   1.168   9.890   7.758
 5723SOL     OW22015   0.285   9.478   8.709
 5723SOL    HW122016   0.249   9.495   8.796
 5723SOL    HW222017   0.269   9.385   8.694
 5724SOL     OW22018   0.682   9.921   8.422
 5724SOL    HW122019   0.775   9.911   8.402
 5724SOL    HW222020   0.665   0.015   8.409
 5725SOL     OW22021   0.312   9.371   8.132
 5725SOL    HW122022   0.298   9.457   8.173
 5725SOL    HW222023   0.330   9.312   8.206
 5726SOL     OW22024   1.596   9.688   7.799
 5726SOL    HW122025   1.633   9.621   7.857
 5726SOL    HW222026   1.566   9.757   7.859
 5727SOL     OW22027   1.514   9.563   7.561
 5727SOL    HW122028   1.463   9.491   7.599
 5727SOL    HW222029   1.542   9.614   7.637
 5728SOL     OW22030   0.295   0.096   8.362
 5728SOL    HW122031   0.385   0.127   8.352
 5728SOL    HW222032   0.304   0.008   8.398
 5729SOL     OW22033   0.319   9.832   8.464
 5729SOL    HW122034   0.263   9.755   8.476
 5729SOL    HW222035   0.379   9.808   8.393
 5730SOL     OW22036   1.215   9.765   9.103
 5730SOL    HW122037   1.168   9.774   9.185
 5730SOL    HW222038   1.176   9.830   9.045
 5731SOL     OW22039   1.149   9.537   8.954
 5731SOL    HW122040   1.168   9.613   9.010
 5731SOL    HW222041   1.186   9.561   8.869
 5732SOL     OW22042   0.055   9.921   8.562
 5732SOL    HW122043   0.148   9.907   8.541
 5732SOL    HW222044   0.050   9.907   8.657
 5733SOL     OW22045   0.220   9.821   9.077
 5733SOL    HW122046   0.310   9.817   9.044
 5733SOL    HW222047   0.212   9.910   9.113
 5734SOL     OW22048   0.721   9.894   7.702
 5734SOL    HW122049   0.769   9.812   7.700
 5734SOL    HW222050   0.687   9.901   7.791
 5735SOL     OW22051   0.661   9.791   8.667
 5735SOL    HW122052   0.620   9.707   8.649
 5735SOL    HW222053   0.661   9.837   8.583
 5736SOL     OW22054   1.709   9.450   7.921
 5736SOL    HW122055   1.771   9.448   7.848
 5736SOL    HW222056   1.712   9.362   7.957
 5737SOL     OW22057   0.241   9.605   8.244
 5737SOL    HW122058   0.166   9.645   8.200
 5737SOL    HW222059   0.215   9.601   8.336
 5738SOL     OW22060   1.050   9.534   8.382
 5738SOL    HW122061   1.035   9.477   8.306
 5738SOL    HW222062   1.048   9.475   8.457
 5739SOL     OW22063   1.781   9.672   8.830
 5739SOL    HW122064   1.824   9.757   8.844
 5739SOL    HW222065   1.768   9.667   8.736
 5740SOL     OW22066   0.678   9.490   8.929
 5740SOL    HW122067   0.765   9.468   8.895
 5740SOL    HW222068   0.694   9.519   9.018
 5741SOL     OW22069   0.134   9.695   7.427
 5741SOL    HW122070   0.044   9.666   7.412
 5741SOL    HW222071   0.147   9.766   7.364
 5742SOL     OW22072   0.153   9.507   7.672
 5742SOL    HW122073   0.074   9.485   7.623
 5742SOL    HW222074   0.209   9.430   7.663
 5743SOL     OW22075   0.729   9.833   9.097
 5743SOL    HW122076   0.666   9.890   9.141
 5743SOL    HW222077   0.728   9.752   9.148
 5744SOL     OW22078   1.243   9.643   7.899
 5744SOL    HW122079   1.297   9.564   7.898
 5744SOL    HW222080   1.274   9.693   7.974
 5745SOL     OW22081   1.722   9.649   9.107
 5745SOL    HW122082   1.751   9.665   9.017
 5745SOL    HW222083   1.696   9.557   9.108
 5746SOL     OW22084   1.120   0.206   7.501
 5746SOL    HW122085   1.151   0.269   7.436
 5746SOL    HW222086   1.199   0.173   7.543
 5747SOL     OW22087   0.495   9.662   7.988
 5747SOL    HW122088   0.400   9.657   7.977
 5747SOL    HW222089   0.507   9.704   8.074
 5748SOL     OW22090   0.357   9.903   8.742
 5748SOL    HW122091   0.408   9.844   8.798
 5748SOL    HW222092   0.376   9.875   8.653
 5749SOL     OW22093   1.423   9.508   8.542
 5749SOL    HW122094   1.453   9.417   8.540
 5749SOL    HW222095   1.366   9.513   8.619
 5750SOL     OW22096   1.043   9.333   8.587
 5750SOL    HW122097   0.999   9.267   8.533
 5750SOL    HW222098   1.132   9.300   8.596
 5751SOL     OW22099   1.386   9.333   7.643
 5751SOL    HW122100   1.429   9.263   7.594
 5751SOL    HW222101   1.296   9.302   7.656
 5752SOL     OW22102   1.341   9.776   8.130
 5752SOL    HW122103   1.299   9.861   8.128
 5752SOL    HW222104   1.324   9.742   8.218
 5753SOL     OW22105   1.572   9.484   8.301
 5753SOL    HW122106   1.533   9.514   8.383
 5753SOL    HW222107   1.590   9.565   8.252
 5754SOL     OW22108   1.650   9.972   9.494
 5754SOL    HW122109   1.722   0.035   9.488
 5754SOL    HW222110   1.659   9.934   9.581
 5755SOL     OW22111   0.024   9.883   9.866
 5755SOL    HW122112   9.944   9.925   9.832
 5755SOL    HW222113   0.060   9.946   9.927
 5756SOL     OW22114   0.832   9.354   9.812
 5756SOL    HW122115   0.878   9.433   9.783
 5756SOL    HW222116   0.739   9.378   9.813
 5757SOL     OW22117   1.039   9.925   9.771
 5757SOL    HW122118   1.048   9.913   9.865
 5757SOL    HW222119   0.952   9.964   9.759
 5758SOL     OW22120   0.087   0.095   0.035
 5758SOL    HW122121   0.087   0.074   0.129
 5758SOL    HW222122   0.056   0.185   0.030
 5759SOL     OW22123   0.948   9.585   9.471
 5759SOL    HW122124   0.900   9.668   9.465
 5759SOL    HW222125   0.977   9.568   9.382
 5760SOL     OW22126   1.478   9.386   9.794
 5760SOL    HW122127   1.453   9.355   9.707
 5760SOL    HW222128   1.572   9.404   9.787
 5761SOL     OW22129   0.650   9.402   9.388
 5761SOL    HW122130   0.695   9.327   9.427
 5761SOL    HW222131   0.593   9.364   9.322
 5762SOL     OW22132   0.557   9.410   9.820
 5762SOL    HW122133   0.487   9.433   9.880
 5762SOL    HW222134   0.543   9.466   9.744
 5763SOL     OW22135   0.325   9.332   9.502
 5763SOL    HW122136   0.378   9.410   9.517
 5763SOL    HW222137   0.369   9.263   9.552
 5764SOL     OW22138   0.977   9.580   9.742
 5764SOL    HW122139   0.960   9.579   9.647
 5764SOL    HW222140   1.072   9.590   9.749
 5765SOL     OW22141   1.072   9.835   9.322
 5765SOL    HW122142   0.984   9.872   9.335
 5765SOL    HW222143   1.116   9.848   9.405
 5766SOL     OW22144   0.786   9.734   9.897
 5766SOL    HW122145   0.792   9.826   9.870
 5766SOL    HW222146   0.851   9.689   9.844
 5767SOL     OW22147   0.501   9.534   9.581
 5767SOL    HW122148   0.565   9.518   9.512
 5767SOL    HW222149   0.456   9.614   9.554
 5768SOL     OW22150   1.648   9.893   9.764
 5768SOL    HW122151   1.592   9.959   9.805
 5768SOL    HW222152   1.727   9.891   9.819
 5769SOL     OW22153   1.202   9.858   9.566
 5769SOL    HW122154   1.210   9.765   9.588
 5769SOL    HW222155   1.142   9.893   9.633
 5770SOL     OW22156   0.351   9.453   9.998
 5770SOL    HW122157   0.309   9.518   0.054
 5770SOL    HW222158   0.317   9.369   0.029
 5771SOL     OW22159   1.530   9.665   9.667
 5771SOL    HW122160   1.596   9.602   9.699
 5771SOL    HW222161   1.564   9.750   9.693
 5772SOL     OW22162   1.473   9.550   9.406
 5772SOL    HW122163   1.442   9.470   9.449
 5772SOL    HW222164   1.499   9.608   9.478
 5773SOL     OW22165   0.423   9.784   0.144
 5773SOL    HW122166   0.333   9.752   0.141
 5773SOL    HW222167   0.414   9.876   0.168
 5774SOL     OW22168   0.815   9.827   9.506
 5774SOL    HW122169   0.813   9.844   9.600
 5774SOL    HW222170   0.755   9.892   9.469
 5775SOL     OW22171   1.730   9.502   9.776
 5775SOL    HW122172   1.793   9.496   9.704
 5775SOL    HW222173   1.784   9.524   9.853
 5776SOL     OW22174   0.127   9.679   9.295
 5776SOL    HW122175   0.036   9.696   9.321
 5776SOL    HW222176   0.143   9.740   9.223
 5777SOL     OW22177   0.095   9.478   9.549
 5777SOL    HW122178   0.128   9.524   9.626
 5777SOL    HW222179   0.167   9.422   9.521
 5778SOL     OW22180   1.266   9.628   9.741
 5778SOL    HW122181   1.352   9.635   9.699
 5778SOL    HW222182   1.266   9.699   9.806
 5779SOL     OW22183   1.110   0.344   9.497
 5779SOL    HW122184   1.120   0.413   9.431
 5779SOL    HW222185   1.192   0.294   9.491
 5780SOL     OW22186   0.498   9.748   9.879
 5780SOL    HW122187   0.592   9.735   9.883
 5780SOL    HW222188   0.472   9.765   9.970
 5781SOL     OW22189   1.398   9.314   9.532
 5781SOL    HW122190   1.438   9.249   9.474
 5781SOL    HW222191   1.314   9.275   9.557
 5782SOL     OW22192   1.257   9.717   0.002
 5782SOL    HW122193   1.176   9.767   9.990
 5782SOL    HW222194   1.284   9.736   0.092
 5783SOL     OW22195   2.072   0.638   0.138
 5783SOL    HW122196   2.036   0.614   0.224
 5783SOL    HW222197   2.120   0.560   0.110
 5784SOL     OW22198   2.052   0.335   1.106
 5784SOL    HW122199   2.092   0.274   1.168
 5784SOL    HW222200   2.010   0.279   1.041
 5785SOL     OW22201   1.845   0.339   0.651
 5785SOL    HW122202   1.773   0.396   0.679
 5785SOL    HW222203   1.903   0.396   0.602
 5786SOL     OW22204   2.454   1.362   1.113
 5786SOL    HW122205   2.359   1.355   1.103
 5786SOL    HW222206   2.465   1.409   1.196
 5787SOL     OW22207   3.462   1.523   0.724
 5787SOL    HW122208   3.412   1.485   0.797
 5787SOL    HW222209   3.399   1.527   0.652
 5788SOL     OW22210   3.025   0.695   0.709
 5788SOL    HW122211   3.044   0.779   0.668
 5788SOL    HW222212   2.974   0.717   0.787
 5789SOL     OW22213   3.610   0.592   0.208
 5789SOL    HW122214   3.547   0.603   0.137
 5789SOL    HW222215   3.572   0.524   0.264
 5790SOL     OW22216   2.618   1.145   1.050
 5790SOL    HW122217   2.653   1.115   1.134
 5790SOL    HW222218   2.553   1.211   1.073
 5791SOL     OW22219   2.581   0.966   0.652
 5791SOL    HW122220   2.638   0.967   0.729
 5791SOL    HW222221   2.506   1.020   0.678
 5792SOL     OW22222   2.182   1.409   1.075
 5792SOL    HW122223   2.111   1.346   1.064
 5792SOL    HW222224   2.187   1.455   0.991
 5793SOL     OW22225   3.328   1.502   1.375
 5793SOL    HW122226   3.400   1.559   1.403
 5793SOL    HW222227   3.264   1.509   1.446
 5794SOL     OW22228   2.307   0.401   1.480
 5794SOL    HW122229   2.381   0.345   1.501
 5794SOL    HW222230   2.231   0.354   1.516
 5795SOL     OW22231   3.444   0.462   0.748
 5795SOL    HW122232   3.365   0.456   0.694
 5795SOL    HW222233   3.424   0.531   0.812
 5796SOL     OW22234   2.095   1.733   0.437
 5796SOL    HW122235   2.103   1.796   0.509
 5796SOL    HW222236   2.179   1.739   0.391
 5797SOL     OW22237   2.959   1.340   1.705
 5797SOL    HW122238   3.035   1.307   1.754
 5797SOL    HW222239   2.917   1.261   1.670
 5798SOL     OW22240   2.204   1.471   0.551
 5798SOL    HW122241   2.150   1.543   0.519
 5798SOL    HW222242   2.142   1.406   0.581
 5799SOL     OW22243   2.098   1.060   0.820
 5799SOL    HW122244   2.123   0.973   0.851
 5799SOL    HW222245   2.054   1.101   0.895
 5800SOL     OW22246   2.419   1.831   1.520
 5800SOL    HW122247   2.396   1.787   1.439
 5800SOL    HW222248   2.450   1.917   1.493
 5801SOL     OW22249   3.493   0.110   1.538
 5801SOL    HW122250   3.518   0.188   1.490
 5801SOL    HW222251   3.436   0.141   1.608
 5802SOL     OW22252   3.715   1.760   0.309
 5802SOL    HW122253   3.780   1.726   0.372
 5802SOL    HW222254   3.748   1.847   0.285
 5803SOL     OW22255   1.809   1.472   0.099
 5803SOL    HW122256   1.862   1.394   0.114
 5803SOL    HW222257   1.844   1.536   0.161
 5804SOL     OW22258   3.573   0.943   0.661
 5804SOL    HW122259   3.652   0.892   0.645
 5804SOL    HW222260   3.558   0.989   0.579
 5805SOL     OW22261   3.552   1.103   0.426
 5805SOL    HW122262   3.625   1.093   0.366
 5805SOL    HW222263   3.568   1.186   0.471
 5806SOL     OW22264   2.421   1.386   0.714
 5806SOL    HW122265   2.413   1.291   0.715
 5806SOL    HW222266   2.351   1.416   0.657
 5807SOL     OW22267   3.129   1.215   1.460
 5807SOL    HW122268   3.168   1.148   1.403
 5807SOL    HW222269   3.153   1.188   1.549
 5808SOL     OW22270   2.718   0.061   0.552
 5808SOL    HW122271   2.748   0.146   0.520
 5808SOL    HW222272   2.623   0.066   0.547
 5809SOL     OW22273   1.997   0.950   1.257
 5809SOL    HW122274   2.026   0.874   1.307
 5809SOL    HW222275   1.910   0.928   1.225
 5810SOL     OW22276   3.368   1.024   0.229
 5810SOL    HW122277   3.311   0.953   0.259
 5810SOL    HW222278   3.428   1.038   0.302
 5811SOL     OW22279   3.155   1.863   1.650
 5811SOL    HW122280   3.112   1.919   1.585
 5811SOL    HW222281   3.133   1.774   1.623
 5812SOL     OW22282   2.116   0.277   1.853
 5812SOL    HW122283   2.172   0.347   1.885
 5812SOL    HW222284   2.027   0.306   1.873
 5813SOL     OW22285   3.291   1.418   0.921
 5813SOL    HW122286   3.239   1.427   1.001
 5813SOL    HW222287   3.284   1.325   0.898
 5814SOL     OW22288   3.490   1.820   0.581
 5814SOL    HW122289   3.481   1.769   0.501
 5814SOL    HW222290   3.506   1.754   0.650
 5815SOL     OW22291   3.153   0.397   0.945
 5815SOL    HW122292   3.063   0.365   0.961
 5815SOL    HW222293   3.208   0.335   0.993
 5816SOL     OW22294   3.447   1.697   0.342
 5816SOL    HW122295   3.541   1.707   0.323
 5816SOL    HW222296   3.407   1.675   0.258
 5817SOL     OW22297   3.213   0.462   1.689
 5817SOL    HW122298   3.237   0.502   1.772
 5817SOL    HW222299   3.243   0.524   1.623
 5818SOL     OW22300   2.762   0.909   1.530
 5818SOL    HW122301   2.783   0.821   1.560
 5818SOL    HW222302   2.679   0.899   1.482
 5819SOL     OW22303   2.885   0.413   1.237
 5819SOL    HW122304   2.792   0.428   1.253
 5819SOL    HW222305   2.888   0.371   1.151
 5820SOL     OW22306   2.035   1.880   1.571
 5820SOL    HW122307   2.049   1.847   1.659
 5820SOL    HW222308   1.997   1.807   1.523
 5821SOL     OW22309   2.765   0.350   0.178
 5821SOL    HW122310   2.717   0.399   0.111
 5821SOL    HW222311   2.744   0.258   0.160
 5822SOL     OW22312   3.586   0.609   1.851
 5822SOL    HW122313   3.533   0.665   1.794
 5822SOL    HW222314   3.595   0.527   1.801
 5823SOL     OW22315   3.273   1.160   0.551
 5823SOL    HW122316   3.355   1.158   0.502
 5823SOL    HW222317   3.216   1.219   0.501
 5824SOL     OW22318   2.430   0.187   0.949
 5824SOL    HW122319   2.430   0.219   1.039
 5824SOL    HW222320   2.421   0.266   0.895
 5825SOL     OW22321   2.874   1.487   0.448
 5825SOL    HW122322   2.845   1.561   0.394
 5825SOL    HW222323   2.814   1.487   0.523
 5826SOL     OW22324   2.224   1.792   0.867
 5826SOL    HW122325   2.273   1.710   0.881
 5826SOL    HW222326   2.284   1.861   0.894
 5827SOL     OW22327   3.690   1.063   0.886
 5827SOL    HW122328   3.633   1.036   0.814
 5827SOL    HW222329   3.630   1.081   0.958
 5828SOL     OW22330   3.117   1.538   1.555
 5828SOL    HW122331   3.097   1.473   1.622
 5828SOL    HW222332   3.049   1.526   1.489
 5829SOL     OW22333   3.349   0.778   0.693
 5829SOL    HW122334   3.339   0.736   0.779
 5829SOL    HW222335   3.428   0.832   0.702
 5830SOL     OW22336   2.991   1.753   0.155
 5830SOL    HW122337   2.921   1.732   0.217
 5830SOL    HW222338   3.011   1.669   0.113
 5831SOL     OW22339   2.092   0.249   1.572
 5831SOL    HW122340   1.998   0.265   1.570
 5831SOL    HW222341   2.112   0.237   1.665
 5832SOL     OW22342   3.475   1.424   0.058
 5832SOL    HW122343   3.565   1.398   0.079
 5832SOL    HW222344   3.428   1.342   0.044
 5833SOL     OW22345   2.357   1.763   0.340
 5833SOL    HW122346   2.385   1.813   0.416
 5833SOL    HW222347   2.393   1.675   0.354
 5834SOL     OW22348   3.269   0.142   0.391
 5834SOL    HW122349   3.256   0.108   0.302
 5834SOL    HW222350   3.333   0.084   0.430
 5835SOL     OW22351   2.134   1.825   1.196
 5835SOL    HW122352   2.155   1.740   1.236
 5835SOL    HW222353   2.074   1.803   1.125
 5836SOL     OW22354   2.732   1.681   0.838
 5836SOL    HW122355   2.731   1.610   0.903
 5836SOL    HW222356   2.706   1.638   0.756
 5837SOL     OW22357   3.359   0.234   1.746
 5837SOL    HW122358   3.343   0.221   1.840
 5837SOL    HW222359   3.294   0.298   1.719
 5838SOL     OW22360   2.635   0.255   1.788
 5838SOL    HW122361   2.717   0.206   1.785
 5838SOL    HW222362   2.661   0.346   1.772
 5839SOL     OW22363   2.753   1.559   1.250
 5839SOL    HW122364   2.745   1.530   1.159
 5839SOL    HW222365   2.817   1.498   1.288
 5840SOL     OW22366   3.252   0.583   1.412
 5840SOL    HW122367   3.158   0.582   1.427
 5840SOL    HW222368   3.276   0.676   1.419
 5841SOL     OW22369   2.701   1.458   0.997
 5841SOL    HW122370   2.770   1.403   0.960
 5841SOL    HW222371   2.629   1.397   1.013
 5842SOL     OW22372   2.821   0.509   0.907
 5842SOL    HW122373   2.779   0.491   0.823
 5842SOL    HW222374   2.843   0.422   0.942
 5843SOL     OW22375   2.418   9.921   0.609
 5843SOL    HW122376   2.326   9.908   0.635
 5843SOL    HW222377   2.416  -0.002   0.552
 5844SOL     OW22378   3.343   1.188   0.011
 5844SOL    HW122379   3.361   1.122   0.078
 5844SOL    HW222380   3.254   1.218   0.029
 5845SOL     OW22381   2.811   0.304   0.453
 5845SOL    HW122382   2.783   0.324   0.363
 5845SOL    HW222383   2.905   0.320   0.452
 5846SOL     OW22384   2.985   0.567   1.446
 5846SOL    HW122385   2.916   0.602   1.504
 5846SOL    HW222386   2.937   0.525   1.375
 5847SOL     OW22387   3.077   1.574   0.825
 5847SOL    HW122388   3.094   1.629   0.749
 5847SOL    HW222389   3.158   1.526   0.839
 5848SOL     OW22390   2.346   1.121   0.690
 5848SOL    HW122391   2.279   1.092   0.753
 5848SOL    HW222392   2.304   1.108   0.605
 5849SOL     OW22393   3.121   1.778   0.625
 5849SOL    HW122394   3.156   1.850   0.573
 5849SOL    HW222395   3.039   1.812   0.661
 5850SOL     OW22396   2.882   0.648   0.032
 5850SOL    HW122397   2.812   0.585   0.013
 5850SOL    HW222398   2.943   0.600   0.088
 5851SOL     OW22399   2.422   0.237   1.222
 5851SOL    HW122400   2.474   0.193   1.289
 5851SOL    HW222401   2.331   0.224   1.249
 5852SOL     OW22402   2.692   0.424   0.680
 5852SOL    HW122403   2.598   0.426   0.663
 5852SOL    HW222404   2.730   0.385   0.601
 5853SOL     OW22405   2.831   0.063   0.813
 5853SOL    HW122406   2.801   0.073   0.723
 5853SOL    HW222407   2.843   9.968   0.824
 5854SOL     OW22408   3.273   1.151   0.850
 5854SOL    HW122409   3.216   1.079   0.877
 5854SOL    HW222410   3.269   1.150   0.754
 5855SOL     OW22411   3.311   0.638   0.936
 5855SOL    HW122412   3.246   0.569   0.941
 5855SOL    HW222413   3.356   0.636   1.020
 5856SOL     OW22414   3.732   0.810   0.326
 5856SOL    HW122415   3.777   0.773   0.402
 5856SOL    HW222416   3.672   0.741   0.297
 5857SOL     OW22417   3.608   1.327   0.569
 5857SOL    HW122418   3.686   1.300   0.616
 5857SOL    HW222419   3.568   1.395   0.624
 5858SOL     OW22420   3.282   0.558   0.039
 5858SOL    HW122421   3.205   0.557   0.096
 5858SOL    HW222422   3.322   0.472   0.050
 5859SOL     OW22423   3.654   1.267   1.483
 5859SOL    HW122424   3.732   1.212   1.478
 5859SOL    HW222425   3.681   1.343   1.535
 5860SOL     OW22426   2.936   1.398   1.386
 5860SOL    HW122427   2.858   1.367   1.433
 5860SOL    HW222428   3.003   1.333   1.406
 5861SOL     OW22429   3.546   1.573   1.711
 5861SOL    HW122430   3.525   1.607   1.623
 5861SOL    HW222431   3.632   1.533   1.700
 5862SOL     OW22432   2.985   1.217   1.134
 5862SOL    HW122433   2.902   1.191   1.176
 5862SOL    HW222434   2.958   1.251   1.049
 5863SOL     OW22435   3.487   1.105   1.071
 5863SOL    HW122436   3.484   1.172   1.140
 5863SOL    HW222437   3.405   1.116   1.024
 5864SOL     OW22438   2.710   0.157   1.392
 5864SOL    HW122439   2.738   0.118   1.309
 5864SOL    HW222440   2.791   0.193   1.429
 5865SOL     OW22441   2.763   1.019   1.794
 5865SOL    HW122442   2.717   0.947   1.836
 5865SOL    HW222443   2.769   0.993   1.702
 5866SOL     OW22444   2.698   1.070   0.421
 5866SOL    HW122445   2.661   1.031   0.500
 5866SOL    HW222446   2.755   1.003   0.385
 5867SOL     OW22447   3.151   0.345   1.294
 5867SOL    HW122448   3.194   0.418   1.337
 5867SOL    HW222449   3.063   0.378   1.273
 5868SOL     OW22450   1.953   1.635   1.421
 5868SOL    HW122451   1.891   1.651   1.349
 5868SOL    HW222452   2.030   1.599   1.377
 5869SOL     OW22453   2.176   1.091   0.463
 5869SOL    HW122454   2.183   1.142   0.382
 5869SOL    HW222455   2.215   1.006   0.442
 5870SOL     OW22456   2.402   0.555   0.814
 5870SOL    HW122457   2.413   0.613   0.739
 5870SOL    HW222458   2.472   0.581   0.874
 5871SOL     OW22459   3.121   1.355   0.411
 5871SOL    HW122460   3.174   1.424   0.450
 5871SOL    HW222461   3.030   1.383   0.425
 5872SOL     OW22462   3.156   1.453   1.158
 5872SOL    HW122463   3.208   1.463   1.237
 5872SOL    HW222464   3.093   1.384   1.178
 5873SOL     OW22465   3.350   0.639   0.449
 5873SOL    HW122466   3.349   0.678   0.537
 5873SOL    HW222467   3.297   0.699   0.396
 5874SOL     OW22468   2.207   1.568   1.303
 5874SOL    HW122469   2.183   1.505   1.235
 5874SOL    HW222470   2.303   1.566   1.303
 5875SOL     OW22471   3.445   0.770   1.668
 5875SOL    HW122472   3.370   0.792   1.612
 5875SOL    HW222473   3.518   0.817   1.629
 5876SOL     OW22474   2.868   0.096   1.767
 5876SOL    HW122475   2.918   0.177   1.758
 5876SOL    HW222476   2.890   0.046   1.689
 5877SOL     OW22477   2.387   0.001   1.741
 5877SOL    HW122478   2.415   0.064   1.673
 5877SOL    HW222479   2.292   9.995   1.730
 5878SOL     OW22480   2.448   0.937   0.949
 5878SOL    HW122481   2.489   1.023   0.954
 5878SOL    HW222482   2.486   0.888   1.022
 5879SOL     OW22483   3.169   0.888   0.985
 5879SOL    HW122484   3.078   0.859   0.980
 5879SOL    HW222485   3.221   0.810   0.966
 5880SOL     OW22486   3.073   0.555   0.229
 5880SOL    HW122487   3.073   0.484   0.293
 5880SOL    HW222488   3.097   0.633   0.279
 5881SOL     OW22489   2.166   0.170   1.308
 5881SOL    HW122490   2.138   0.191   1.397
 5881SOL    HW222491   2.176   0.075   1.308
 5882SOL     OW22492   1.962   1.305   1.303
 5882SOL    HW122493   1.994   1.242   1.367
 5882SOL    HW222494   1.886   1.345   1.344
 5883SOL     OW22495   2.582   0.610   1.013
 5883SOL    HW122496   2.673   0.598   0.988
 5883SOL    HW222497   2.581   0.691   1.063
 5884SOL     OW22498   3.674   0.995   1.867
 5884SOL    HW122499   3.594   0.942   1.875
 5884SOL    HW222500   3.660   1.068   1.926
 5885SOL     OW22501   2.163   0.050   0.664
 5885SOL    HW122502   2.228   0.107   0.623
 5885SOL    HW222503   2.155   0.084   0.753
 5886SOL     OW22504   3.481   0.405   0.360
 5886SOL    HW122505   3.516   0.347   0.427
 5886SOL    HW222506   3.431   0.471   0.408
 5887SOL     OW22507   2.914   0.759   0.973
 5887SOL    HW122508   2.890   0.770   1.065
 5887SOL    HW222509   2.889   0.669   0.952
 5888SOL     OW22510   2.887   1.592   1.773
 5888SOL    HW122511   2.791   1.595   1.773
 5888SOL    HW222512   2.909   1.503   1.746
 5889SOL     OW22513   3.369   0.312   0.122
 5889SOL    HW122514   3.338   0.222   0.129
 5889SOL    HW222515   3.407   0.332   0.208
 5890SOL     OW22516   3.173   0.817   0.022
 5890SOL    HW122517   3.219   0.733   0.017
 5890SOL    HW222518   3.164   0.845   9.931
 5891SOL     OW22519   2.923   1.340   0.891
 5891SOL    HW122520   2.937   1.270   0.827
 5891SOL    HW222521   2.969   1.415   0.855
 5892SOL     OW22522   2.202   0.823   0.904
 5892SOL    HW122523   2.291   0.855   0.917
 5892SOL    HW222524   2.205   0.732   0.934
 5893SOL     OW22525   2.228   0.548   1.030
 5893SOL    HW122526   2.168   0.474   1.028
 5893SOL    HW222527   2.281   0.538   0.951
 5894SOL     OW22528   2.940   0.369   1.692
 5894SOL    HW122529   2.864   0.427   1.691
 5894SOL    HW222530   3.015   0.427   1.676
 5895SOL     OW22531   2.978   0.198   1.473
 5895SOL    HW122532   2.971   0.262   1.544
 5895SOL    HW222533   3.043   0.235   1.413
 5896SOL     OW22534   1.967   1.766   0.975
 5896SOL    HW122535   1.918   1.694   0.934
 5896SOL    HW222536   2.049   1.769   0.925
 5897SOL     OW22537   2.376   1.568   0.914
 5897SOL    HW122538   2.421   1.528   0.989
 5897SOL    HW222539   2.397   1.511   0.840
 5898SOL     OW22540   2.812   0.777   1.224
 5898SOL    HW122541   2.823   0.765   1.318
 5898SOL    HW222542   2.720   0.800   1.213
 5899SOL     OW22543   1.856   0.524   1.155
 5899SOL    HW122544   1.926   0.463   1.133
 5899SOL    HW222545   1.863   0.593   1.089
 5900SOL     OW22546   2.086   0.551   1.710
 5900SOL    HW122547   2.045   0.477   1.664
 5900SOL    HW222548   2.012   0.600   1.747
 5901SOL     OW22549   3.445   0.626   1.175
 5901SOL    HW122550   3.403   0.587   1.252
 5901SOL    HW222551   3.529   0.580   1.169
 5902SOL     OW22552   2.612   0.439   1.227
 5902SOL    HW122553   2.542   0.374   1.225
 5902SOL    HW222554   2.589   0.500   1.156
 5903SOL     OW22555   2.839   1.752   1.434
 5903SOL    HW122556   2.817   1.688   1.367
 5903SOL    HW222557   2.785   1.727   1.510
 5904SOL     OW22558   2.070   1.094   1.476
 5904SOL    HW122559   2.129   1.033   1.519
 5904SOL    HW222560   2.058   1.058   1.388
 5905SOL     OW22561   3.185   1.045   1.223
 5905SOL    HW122562   3.188   0.986   1.148
 5905SOL    HW222563   3.119   1.110   1.199
 5906SOL     OW22564   3.166   0.821   0.297
 5906SOL    HW122565   3.084   0.860   0.327
 5906SOL    HW222566   3.162   0.826   0.201
 5907SOL     OW22567   3.643   1.745   1.092
 5907SOL    HW122568   3.728   1.724   1.055
 5907SOL    HW222569   3.599   1.660   1.102
 5908SOL     OW22570   3.055   1.711   1.072
 5908SOL    HW122571   3.046   1.674   0.984
 5908SOL    HW222572   3.083   1.638   1.127
 5909SOL     OW22573   1.975   1.228   1.024
 5909SOL    HW122574   1.956   1.238   1.117
 5909SOL    HW222575   1.902   1.176   0.990
 5910SOL     OW22576   2.652   1.739   1.639
 5910SOL    HW122577   2.571   1.771   1.601
 5910SOL    HW222578   2.628   1.654   1.677
 5911SOL     OW22579   2.732   0.094   0.089
 5911SOL    HW122580   2.701   0.082  -0.001
 5911SOL    HW222581   2.663   0.054   0.143
 5912SOL     OW22582   3.667   0.218   0.488
 5912SOL    HW122583   3.693   0.203   0.397
 5912SOL    HW222584   3.686   0.136   0.532
 5913SOL     OW22585   3.273   1.567   0.523
 5913SOL    HW122586   3.326   1.606   0.453
 5913SOL    HW222587   3.213   1.637   0.549
 5914SOL     OW22588   2.081   1.773   1.821
 5914SOL    HW122589   2.028   1.699   1.851
 5914SOL    HW222590   2.107   1.817   1.901
 5915SOL     OW22591   3.135   0.934   0.622
 5915SOL    HW122592   3.207   0.875   0.644
 5915SOL    HW222593   3.178   1.011   0.585
 5916SOL     OW22594   2.706   1.312   1.500
 5916SOL    HW122595   2.641   1.369   1.542
 5916SOL    HW222596   2.658   1.232   1.478
 5917SOL     OW22597   2.541   1.606   0.134
 5917SOL    HW122598   2.491   1.661   0.074
 5917SOL    HW222599   2.497   1.521   0.130
 5918SOL     OW22600   3.556   1.667   1.451
 5918SOL    HW122601   3.648   1.641   1.455
 5918SOL    HW222602   3.558   1.763   1.450
 5919SOL     OW22603   3.737   0.142   0.933
 5919SOL    HW122604   3.748   0.067   0.992
 5919SOL    HW222605   3.647   0.134   0.902
 5920SOL     OW22606   2.117   0.348   0.740
 5920SOL    HW122607   2.123   0.409   0.667
 5920SOL    HW222608   2.024   0.326   0.746
 5921SOL     OW22609   3.098   1.530   0.001
 5921SOL    HW122610   3.100   1.447   0.047
 5921SOL    HW222611   3.018   1.527   9.949
 5922SOL     OW22612   2.713   1.076   1.299
 5922SOL    HW122613   2.647   1.008   1.310
 5922SOL    HW222614   2.779   1.056   1.366
 5923SOL     OW22615   2.834   0.850   0.231
 5923SOL    HW122616   2.778   0.911   0.183
 5923SOL    HW222617   2.859   0.785   0.166
 5924SOL     OW22618   3.329   1.648   0.098
 5924SOL    HW122619   3.244   1.610   0.079
 5924SOL    HW222620   3.392   1.577   0.083
 5925SOL     OW22621   3.491   1.306   1.266
 5925SOL    HW122622   3.549   1.284   1.340
 5925SOL    HW222623   3.420   1.357   1.306
 5926SOL     OW22624   2.957   1.119   0.734
 5926SOL    HW122625   2.882   1.071   0.770
 5926SOL    HW222626   3.008   1.053   0.688
 5927SOL     OW22627   2.905   0.253   1.002
 5927SOL    HW122628   2.887   0.204   0.922
 5927SOL    HW222629   2.889   0.190   1.073
 5928SOL     OW22630   2.452   1.525   0.426
 5928SOL    HW122631   2.503   1.452   0.392
 5928SOL    HW222632   2.371   1.486   0.458
 5929SOL     OW22633   3.631   0.347   1.440
 5929SOL    HW122634   3.674   0.430   1.418
 5929SOL    HW222635   3.627   0.300   1.357
 5930SOL     OW22636   2.494   0.205   1.557
 5930SOL    HW122637   2.567   0.185   1.499
 5930SOL    HW222638   2.535   0.230   1.639
 5931SOL     OW22639   1.942   0.420   9.927
 5931SOL    HW122640   1.899   0.433   0.011
 5931SOL    HW222641   2.035   0.411   9.948
 5932SOL     OW22642   3.297   0.853   1.433
 5932SOL    HW122643   3.224   0.909   1.406
 5932SOL    HW222644   3.369   0.879   1.375
 5933SOL     OW22645   3.104   1.290   0.126
 5933SOL    HW122646   3.033   1.228   0.105
 5933SOL    HW222647   3.105   1.292   0.222
 5934SOL     OW22648   3.468   1.882   0.932
 5934SOL    HW122649   3.400   1.823   0.899
 5934SOL    HW222650   3.520   1.828   0.992
 5935SOL     OW22651   3.508   0.890   1.253
 5935SOL    HW122652   3.490   0.807   1.209
 5935SOL    HW222653   3.501   0.956   1.185
 5936SOL     OW22654   3.090   0.354   0.431
 5936SOL    HW122655   3.150   0.281   0.418
 5936SOL    HW222656   3.118   0.394   0.513
 5937SOL     OW22657   2.448   0.738   0.571
 5937SOL    HW122658   2.499   0.808   0.610
 5937SOL    HW222659   2.371   0.781   0.534
 5938SOL     OW22660   3.598   0.366   1.713
 5938SOL    HW122661   3.608   0.365   1.618
 5938SOL    HW222662   3.515   0.321   1.729
 5939SOL     OW22663   3.617   0.916   1.505
 5939SOL    HW122664   3.607   1.008   1.527
 5939SOL    HW222665   3.586   0.909   1.415
 5940SOL     OW22666   2.773   1.487   0.041
 5940SOL    HW122667   2.739   1.398   0.030
 5940SOL    HW222668   2.703   1.535   0.083
 5941SOL     OW22669   2.626   1.870   1.008
 5941SOL    HW122670   2.545   1.903   0.969
 5941SOL    HW222671   2.653   1.799   0.950
 5942SOL     OW22672   2.759   0.980   0.868
 5942SOL    HW122673   2.799   0.906   0.913
 5942SOL    HW222674   2.715   1.031   0.936
 5943SOL     OW22675   2.916   1.102   0.054
 5943SOL    HW122676   2.822   1.088   0.062
 5943SOL    HW222677   2.953   1.015   0.038
 5944SOL     OW22678   3.737   1.547   0.804
 5944SOL    HW122679   3.643   1.538   0.788
 5944SOL    HW222680   3.755   1.485   0.875
 5945SOL     OW22681   2.043   1.261   0.634
 5945SOL    HW122682   2.053   1.212   0.716
 5945SOL    HW222683   2.084   1.206   0.568
 5946SOL     OW22684   3.637   0.200   1.214
 5946SOL    HW122685   3.696   0.128   1.195
 5946SOL    HW222686   3.610   0.232   1.128
 5947SOL     OW22687   3.506   1.510   1.077
 5947SOL    HW122688   3.433   1.481   1.023
 5947SOL    HW222689   3.512   1.445   1.147
 5948SOL     OW22690   2.650   1.529   0.623
 5948SOL    HW122691   2.592   1.547   0.549
 5948SOL    HW222692   2.605   1.462   0.673
 5949SOL     OW22693   3.300   0.218   1.098
 5949SOL    HW122694   3.306   0.125   1.121
 5949SOL    HW222695   3.255   0.257   1.173
 5950SOL     OW22696   2.817   0.038   1.164
 5950SOL    HW122697   2.739   0.013   1.114
 5950SOL    HW222698   2.858   9.955   1.188
 5951SOL     OW22699   2.637   1.334   0.364
 5951SOL    HW122700   2.637   1.239   0.371
 5951SOL    HW222701   2.730   1.359   0.368
 5952SOL     OW22702   2.485   1.546   1.328
 5952SOL    HW122703   2.498   1.520   1.419
 5952SOL    HW222704   2.573   1.565   1.295
 5953SOL     OW22705   3.232   0.051   0.130
 5953SOL    HW122706   3.200   0.053   0.040
 5953SOL    HW222707   3.189   9.976   0.170
 5954SOL     OW22708   3.170   0.464   0.675
 5954SOL    HW122709   3.120   0.546   0.675
 5954SOL    HW222710   3.157   0.429   0.763
 5955SOL     OW22711   3.469   0.215   0.875
 5955SOL    HW122712   3.410   0.224   0.950
 5955SOL    HW222713   3.467   0.300   0.832
 5956SOL     OW22714   1.885   1.055   0.305
 5956SOL    HW122715   1.907   1.134   0.256
 5956SOL    HW222716   1.897   0.984   0.243
 5957SOL     OW22717   2.761   1.710   0.307
 5957SOL    HW122718   2.680   1.673   0.272
 5957SOL    HW222719   2.733   1.769   0.377
 5958SOL     OW22720   2.077   0.685   2.007
 5958SOL    HW122721   2.025   0.709   2.084
 5958SOL    HW222722   2.012   0.676   1.937
 5959SOL     OW22723   2.039   0.338   2.853
 5959SOL    HW122724   2.098   0.266   2.875
 5959SOL    HW222725   1.954   0.297   2.838
 5960SOL     OW22726   1.828   0.395   2.498
 5960SOL    HW122727   1.747   0.428   2.538
 5960SOL    HW222728   1.808   0.304   2.476
 5961SOL     OW22729   2.455   1.298   3.090
 5961SOL    HW122730   2.380   1.288   3.031
 5961SOL    HW222731   2.456   1.390   3.113
 5962SOL     OW22732   3.468   1.566   2.565
 5962SOL    HW122733   3.420   1.528   2.639
 5962SOL    HW222734   3.406   1.560   2.492
 5963SOL     OW22735   2.943   0.774   2.504
 5963SOL    HW122736   3.035   0.785   2.528
 5963SOL    HW222737   2.945   0.729   2.420
 5964SOL     OW22738   3.616   0.613   2.122
 5964SOL    HW122739   3.609   0.612   2.027
 5964SOL    HW222740   3.692   0.557   2.141
 5965SOL     OW22741   2.702   1.208   2.988
 5965SOL    HW122742   2.611   1.201   3.019
 5965SOL    HW222743   2.700   1.280   2.926
 5966SOL     OW22744   2.753   0.725   3.582
 5966SOL    HW122745   2.823   0.684   3.633
 5966SOL    HW222746   2.674   0.675   3.604
 5967SOL     OW22747   2.570   1.019   2.555
 5967SOL    HW122748   2.496   1.069   2.590
 5967SOL    HW222749   2.580   1.052   2.466
 5968SOL     OW22750   2.608   1.209   3.670
 5968SOL    HW122751   2.587   1.276   3.604
 5968SOL    HW222752   2.524   1.168   3.690
 5969SOL     OW22753   2.222   1.398   2.917
 5969SOL    HW122754   2.142   1.361   2.881
 5969SOL    HW222755   2.252   1.460   2.851
 5970SOL     OW22756   2.307   0.430   3.370
 5970SOL    HW122757   2.372   0.361   3.354
 5970SOL    HW222758   2.226   0.383   3.388
 5971SOL     OW22759   2.073   1.732   2.372
 5971SOL    HW122760   2.057   1.643   2.404
 5971SOL    HW222761   2.148   1.723   2.314
 5972SOL     OW22762   3.011   1.320   3.571
 5972SOL    HW122763   3.053   1.301   3.654
 5972SOL    HW222764   2.961   1.241   3.551
 5973SOL     OW22765   2.042   1.472   2.440
 5973SOL    HW122766   2.069   1.427   2.359
 5973SOL    HW222767   2.007   1.402   2.495
 5974SOL     OW22768   2.168   1.020   2.792
 5974SOL    HW122769   2.161   0.924   2.801
 5974SOL    HW222770   2.077   1.051   2.798
 5975SOL     OW22771   2.443   1.787   3.330
 5975SOL    HW122772   2.350   1.779   3.354
 5975SOL    HW222773   2.462   1.880   3.341
 5976SOL     OW22774   2.421   1.078   2.098
 5976SOL    HW122775   2.440   1.026   2.020
 5976SOL    HW222776   2.403   1.166   2.065
 5977SOL     OW22777   3.394   0.144   3.316
 5977SOL    HW122778   3.461   0.203   3.280
 5977SOL    HW222779   3.370   0.184   3.399
 5978SOL     OW22780   2.014   0.591   2.393
 5978SOL    HW122781   1.943   0.530   2.416
 5978SOL    HW222782   2.007   0.662   2.457
 5979SOL     OW22783   3.671   1.769   2.200
 5979SOL    HW122784   3.737   1.750   2.267
 5979SOL    HW222785   3.698   1.854   2.165
 5980SOL     OW22786   1.924   1.577   1.935
 5980SOL    HW122787   1.921   1.486   1.962
 5980SOL    HW222788   1.884   1.626   2.007
 5981SOL     OW22789   3.622   0.939   2.539
 5981SOL    HW122790   3.664   0.854   2.525
 5981SOL    HW222791   3.600   0.969   2.451
 5982SOL     OW22792   3.493   1.120   2.283
 5982SOL    HW122793   3.536   1.134   2.198
 5982SOL    HW222794   3.532   1.187   2.340
 5983SOL     OW22795   1.981   0.750   3.437
 5983SOL    HW122796   2.074   0.772   3.447
 5983SOL    HW222797   1.934   0.829   3.464
 5984SOL     OW22798   2.419   1.417   2.565
 5984SOL    HW122799   2.389   1.328   2.585
 5984SOL    HW222800   2.410   1.424   2.470
 5985SOL     OW22801   3.266   1.225   3.220
 5985SOL    HW122802   3.231   1.146   3.180
 5985SOL    HW222803   3.281   1.201   3.312
 5986SOL     OW22804   2.698   0.081   2.464
 5986SOL    HW122805   2.739   0.153   2.416
 5986SOL    HW222806   2.607   0.082   2.437
 5987SOL     OW22807   1.989   0.984   3.112
 5987SOL    HW122808   2.075   0.942   3.106
 5987SOL    HW222809   1.976   1.021   3.025
 5988SOL     OW22810   3.059   1.804   3.514
 5988SOL    HW122811   3.054   1.866   3.441
 5988SOL    HW222812   3.065   1.718   3.473
 5989SOL     OW22813   2.203   0.255   3.719
 5989SOL    HW122814   2.241   0.340   3.739
 5989SOL    HW222815   2.109   0.270   3.720
 5990SOL     OW22816   3.309   1.447   2.775
 5990SOL    HW122817   3.255   1.421   2.850
 5990SOL    HW222818   3.330   1.365   2.731
 5991SOL     OW22819   3.498   1.851   2.469
 5991SOL    HW122820   3.500   1.755   2.464
 5991SOL    HW222821   3.522   1.871   2.559
 5992SOL     OW22822   2.438   0.678   2.141
 5992SOL    HW122823   2.452   0.755   2.085
 5992SOL    HW222824   2.388   0.712   2.216
 5993SOL     OW22825   3.172   0.334   2.863
 5993SOL    HW122826   3.080   0.330   2.841
 5993SOL    HW222827   3.214   0.371   2.786
 5994SOL     OW22828   3.418   1.661   2.128
 5994SOL    HW122829   3.505   1.688   2.156
 5994SOL    HW222830   3.380   1.740   2.089
 5995SOL     OW22831   2.584   0.604   3.347
 5995SOL    HW122832   2.547   0.550   3.417
 5995SOL    HW222833   2.575   0.550   3.269
 5996SOL     OW22834   3.290   0.529   3.531
 5996SOL    HW122835   3.283   0.554   3.623
 5996SOL    HW222836   3.325   0.440   3.533
 5997SOL     OW22837   2.845   0.480   3.091
 5997SOL    HW122838   2.751   0.462   3.100
 5997SOL    HW222839   2.873   0.425   3.018
 5998SOL     OW22840   2.929   0.687   2.242
 5998SOL    HW122841   2.984   0.616   2.210
 5998SOL    HW222842   2.840   0.653   2.235
 5999SOL     OW22843   2.024   0.783   2.584
 5999SOL    HW122844   2.071   0.766   2.666
 5999SOL    HW222845   1.975   0.863   2.600
 6000SOL     OW22846   1.972   1.907   3.441
 6000SOL    HW122847   1.951   1.871   3.527
 6000SOL    HW222848   1.899   1.878   3.385
 6001SOL     OW22849   2.769   0.373   2.099
 6001SOL    HW122850   2.781   0.453   2.048
 6001SOL    HW222851   2.823   0.308   2.054
 6002SOL     OW22852   3.558   0.562   3.721
 6002SOL    HW122853   3.545   0.642   3.670
 6002SOL    HW222854   3.585   0.497   3.657
 6003SOL     OW22855   3.254   1.102   2.433
 6003SOL    HW122856   3.328   1.092   2.374
 6003SOL    HW222857   3.202   1.173   2.394
 6004SOL     OW22858   2.489   0.151   2.821
 6004SOL    HW122859   2.451   0.187   2.902
 6004SOL    HW222860   2.487   0.224   2.760
 6005SOL     OW22861   2.836   1.508   2.386
 6005SOL    HW122862   2.838   1.586   2.330
 6005SOL    HW222863   2.800   1.439   2.330
 6006SOL     OW22864   2.221   1.837   2.670
 6006SOL    HW122865   2.257   1.752   2.694
 6006SOL    HW222866   2.288   1.900   2.697
 6007SOL     OW22867   3.740   1.074   2.755
 6007SOL    HW122868   3.713   1.033   2.673
 6007SOL    HW222869   3.664   1.067   2.813
 6008SOL     OW22870   3.073   1.539   3.403
 6008SOL    HW122871   3.075   1.459   3.456
 6008SOL    HW222872   3.019   1.516   3.327
 6009SOL     OW22873   2.173   0.976   2.161
 6009SOL    HW122874   2.261   1.007   2.138
 6009SOL    HW222875   2.164   0.893   2.115
 6010SOL     OW22876   2.307   1.294   3.616
 6010SOL    HW122877   2.282   1.297   3.523
 6010SOL    HW222878   2.224   1.282   3.663
 6011SOL     OW22879   3.052   1.758   2.148
 6011SOL    HW122880   2.960   1.753   2.177
 6011SOL    HW222881   3.060   1.691   2.081
 6012SOL     OW22882   2.032   0.339   3.413
 6012SOL    HW122883   2.008   0.407   3.350
 6012SOL    HW222884   1.949   0.309   3.450
 6013SOL     OW22885   2.311   1.696   2.226
 6013SOL    HW122886   2.356   1.633   2.282
 6013SOL    HW222887   2.309   1.655   2.140
 6014SOL     OW22888   3.314   0.159   2.322
 6014SOL    HW122889   3.227   0.197   2.312
 6014SOL    HW222890   3.359   0.218   2.383
 6015SOL     OW22891   2.118   1.773   3.049
 6015SOL    HW122892   2.160   1.692   3.078
 6015SOL    HW222893   2.027   1.747   3.030
 6016SOL     OW22894   2.811   1.721   2.728
 6016SOL    HW122895   2.893   1.676   2.749
 6016SOL    HW222896   2.762   1.658   2.676
 6017SOL     OW22897   2.298   0.671   2.388
 6017SOL    HW122898   2.311   0.577   2.394
 6017SOL    HW222899   2.203   0.683   2.389
 6018SOL     OW22900   3.343   0.255   3.572
 6018SOL    HW122901   3.358   0.266   3.666
 6018SOL    HW222902   3.252   0.225   3.566
 6019SOL     OW22903   2.496   0.111   1.980
 6019SOL    HW122904   2.551   0.171   1.930
 6019SOL    HW222905   2.451   0.058   1.914
 6020SOL     OW22906   2.626   0.264   3.683
 6020SOL    HW122907   2.699   0.204   3.672
 6020SOL    HW222908   2.550   0.216   3.652
 6021SOL     OW22909   2.733   1.549   3.072
 6021SOL    HW122910   2.731   1.520   2.981
 6021SOL    HW222911   2.805   1.501   3.112
 6022SOL     OW22912   3.222   0.597   3.274
 6022SOL    HW122913   3.260   0.579   3.360
 6022SOL    HW222914   3.252   0.686   3.253
 6023SOL     OW22915   2.734   1.420   2.818
 6023SOL    HW122916   2.799   1.376   2.765
 6023SOL    HW222917   2.679   1.467   2.755
 6024SOL     OW22918   2.774   0.546   2.768
 6024SOL    HW122919   2.764   0.528   2.675
 6024SOL    HW222920   2.803   0.463   2.806
 6025SOL     OW22921   2.432   0.081   2.395
 6025SOL    HW122922   2.357   0.078   2.455
 6025SOL    HW222923   2.400   0.132   2.320
 6026SOL     OW22924   2.137   0.096   2.067
 6026SOL    HW122925   2.138   0.136   1.980
 6026SOL    HW222926   2.213   0.134   2.112
 6027SOL     OW22927   2.866   0.276   2.340
 6027SOL    HW122928   2.832   0.311   2.258
 6027SOL    HW222929   2.959   0.301   2.340
 6028SOL     OW22930   2.951   0.611   3.306
 6028SOL    HW122931   2.921   0.549   3.239
 6028SOL    HW222932   3.046   0.607   3.301
 6029SOL     OW22933   3.094   1.644   2.728
 6029SOL    HW122934   3.105   1.696   2.648
 6029SOL    HW222935   3.149   1.567   2.714
 6030SOL     OW22936   2.332   1.153   2.612
 6030SOL    HW122937   2.275   1.117   2.680
 6030SOL    HW222938   2.281   1.146   2.531
 6031SOL     OW22939   3.113   1.808   2.502
 6031SOL    HW122940   3.160   1.867   2.443
 6031SOL    HW222941   3.035   1.856   2.528
 6032SOL     OW22942   2.815   0.595   1.950
 6032SOL    HW122943   2.787   0.558   1.866
 6032SOL    HW222944   2.773   0.681   1.952
 6033SOL     OW22945   1.967   0.544   3.251
 6033SOL    HW122946   2.031   0.566   3.183
 6033SOL    HW222947   1.961   0.623   3.304
 6034SOL     OW22948   2.407   0.251   3.072
 6034SOL    HW122949   2.440   0.227   3.159
 6034SOL    HW222950   2.312   0.245   3.080
 6035SOL     OW22951   2.758   0.482   2.504
 6035SOL    HW122952   2.716   0.525   2.429
 6035SOL    HW222953   2.802   0.406   2.466
 6036SOL     OW22954   2.839   0.085   2.700
 6036SOL    HW122955   2.793   0.098   2.617
 6036SOL    HW222956   2.834   9.991   2.715
 6037SOL     OW22957   3.377   1.203   2.663
 6037SOL    HW122958   3.318   1.161   2.601
 6037SOL    HW222959   3.455   1.223   2.612
 6038SOL     OW22960   3.346   0.643   2.819
 6038SOL    HW122961   3.322   0.565   2.770
 6038SOL    HW222962   3.427   0.674   2.777
 6039SOL     OW22963   3.714   0.842   2.249
 6039SOL    HW122964   3.733   0.796   2.331
 6039SOL    HW222965   3.674   0.775   2.194
 6040SOL     OW22966   3.582   1.287   2.502
 6040SOL    HW122967   3.672   1.253   2.501
 6040SOL    HW222968   3.593   1.382   2.495
 6041SOL     OW22969   3.270   0.485   1.964
 6041SOL    HW122970   3.190   0.495   2.016
 6041SOL    HW222971   3.293   0.392   1.974
 6042SOL     OW22972   2.352   0.251   2.174
 6042SOL    HW122973   2.414   0.207   2.115
 6042SOL    HW222974   2.325   0.329   2.126
 6043SOL     OW22975   3.616   1.250   3.423
 6043SOL    HW122976   3.702   1.219   3.394
 6043SOL    HW222977   3.626   1.345   3.429
 6044SOL     OW22978   2.890   1.382   3.234
 6044SOL    HW122979   2.808   1.338   3.258
 6044SOL    HW222980   2.939   1.317   3.185
 6045SOL     OW22981   3.460   1.569   3.579
 6045SOL    HW122982   3.390   1.557   3.514
 6045SOL    HW222983   3.541   1.561   3.529
 6046SOL     OW22984   2.969   1.220   2.927
 6046SOL    HW122985   2.879   1.202   2.953
 6046SOL    HW222986   2.964   1.237   2.833
 6047SOL     OW22987   3.496   1.096   2.898
 6047SOL    HW122988   3.476   1.174   2.949
 6047SOL    HW222989   3.449   1.109   2.815
 6048SOL     OW22990   2.754   0.174   3.278
 6048SOL    HW122991   2.766   0.138   3.191
 6048SOL    HW222992   2.842   0.197   3.308
 6049SOL     OW22993   2.840   1.096   3.560
 6049SOL    HW122994   2.759   1.129   3.600
 6049SOL    HW222995   2.811   1.050   3.482
 6050SOL     OW22996   2.608   1.090   2.294
 6050SOL    HW122997   2.538   1.080   2.230
 6050SOL    HW222998   2.680   1.036   2.260
 6051SOL     OW22999   2.237   0.862   3.136
 6051SOL    HW123000   2.309   0.873   3.197
 6051SOL    HW223001   2.222   0.768   3.132
 6052SOL     OW23002   3.172   0.349   3.150
 6052SOL    HW123003   3.194   0.436   3.183
 6052SOL    HW223004   3.169   0.361   3.055
 6053SOL     OW23005   1.947   1.570   3.238
 6053SOL    HW123006   1.913   1.623   3.166
 6053SOL    HW223007   2.041   1.563   3.220
 6054SOL     OW23008   2.180   1.142   2.384
 6054SOL    HW123009   2.168   1.216   2.325
 6054SOL    HW223010   2.178   1.065   2.328
 6055SOL     OW23011   2.430   0.484   2.668
 6055SOL    HW123012   2.400   0.444   2.586
 6055SOL    HW223013   2.475   0.564   2.641
 6056SOL     OW23014   3.136   1.324   2.321
 6056SOL    HW123015   3.173   1.412   2.335
 6056SOL    HW223016   3.087   1.332   2.239
 6057SOL     OW23017   3.177   1.384   3.005
 6057SOL    HW123018   3.206   1.339   3.085
 6057SOL    HW223019   3.098   1.337   2.979
 6058SOL     OW23020   2.207   1.523   3.157
 6058SOL    HW123021   2.201   1.472   3.076
 6058SOL    HW223022   2.300   1.543   3.166
 6059SOL     OW23023   2.254   0.766   3.485
 6059SOL    HW123024   2.318   0.798   3.421
 6059SOL    HW223025   2.261   0.671   3.480
 6060SOL     OW23026   3.517   0.791   3.571
 6060SOL    HW123027   3.426   0.815   3.552
 6060SOL    HW223028   3.566   0.821   3.494
 6061SOL     OW23029   2.826   0.072   3.681
 6061SOL    HW123030   2.865   0.040   3.599
 6061SOL    HW223031   2.781   9.996   3.718
 6062SOL     OW23032   2.413   0.117   3.580
 6062SOL    HW123033   2.407   0.022   3.587
 6062SOL    HW223034   2.332   0.149   3.620
 6063SOL     OW23035   2.400   0.903   2.909
 6063SOL    HW123036   2.350   0.958   2.849
 6063SOL    HW223037   2.341   0.888   2.983
 6064SOL     OW23038   3.138   0.835   2.850
 6064SOL    HW123039   3.148   0.860   2.758
 6064SOL    HW223040   3.197   0.761   2.862
 6065SOL     OW23041   2.149   0.220   3.163
 6065SOL    HW123042   2.094   0.240   3.239
 6065SOL    HW223043   2.124   0.131   3.138
 6066SOL     OW23044   1.938   1.317   3.127
 6066SOL    HW123045   1.950   1.254   3.198
 6066SOL    HW223046   1.922   1.400   3.171
 6067SOL     OW23047   2.569   0.685   2.932
 6067SOL    HW123048   2.602   0.650   2.849
 6067SOL    HW223049   2.510   0.755   2.906
 6068SOL     OW23050   3.628   0.990   3.727
 6068SOL    HW123051   3.595   0.913   3.680
 6068SOL    HW223052   3.561   1.009   3.792
 6069SOL     OW23053   2.213   0.082   2.570
 6069SOL    HW123054   2.178   0.171   2.563
 6069SOL    HW223055   2.136   0.026   2.561
 6070SOL     OW23056   2.850   0.810   2.791
 6070SOL    HW123057   2.939   0.817   2.827
 6070SOL    HW223058   2.831   0.716   2.795
 6071SOL     OW23059   2.851   1.544   3.612
 6071SOL    HW123060   2.826   1.599   3.537
 6071SOL    HW223061   2.901   1.472   3.573
 6072SOL     OW23062   3.689   1.526   3.424
 6072SOL    HW123063   3.712   1.557   3.336
 6072SOL    HW223064   3.771   1.532   3.474
 6073SOL     OW23065   2.235   0.937   3.703
 6073SOL    HW123066   2.324   0.946   3.737
 6073SOL    HW223067   2.243   0.874   3.631
 6074SOL     OW23068   3.329   0.217   2.030
 6074SOL    HW123069   3.297   0.131   2.001
 6074SOL    HW223070   3.328   0.212   2.125
 6075SOL     OW23071   3.173   0.946   1.895
 6075SOL    HW123072   3.185   0.867   1.843
 6075SOL    HW223073   3.181   1.018   1.832
 6076SOL     OW23074   2.913   1.297   2.647
 6076SOL    HW123075   2.896   1.214   2.603
 6076SOL    HW223076   2.926   1.360   2.576
 6077SOL     OW23077   2.139   0.749   2.835
 6077SOL    HW123078   2.209   0.685   2.847
 6077SOL    HW223079   2.063   0.710   2.878
 6078SOL     OW23080   2.270   0.506   2.891
 6078SOL    HW123081   2.196   0.448   2.873
 6078SOL    HW223082   2.330   0.492   2.818
 6079SOL     OW23083   3.044   0.393   3.529
 6079SOL    HW123084   2.978   0.435   3.584
 6079SOL    HW223085   3.113   0.458   3.520
 6080SOL     OW23086   3.023   0.201   3.336
 6080SOL    HW123087   3.027   0.267   3.406
 6080SOL    HW223088   3.074   0.240   3.265
 6081SOL     OW23089   1.892   1.319   2.037
 6081SOL    HW123090   1.804   1.341   2.007
 6081SOL    HW223091   1.885   1.228   2.067
 6082SOL     OW23092   1.946   1.794   2.718
 6082SOL    HW123093   1.907   1.707   2.706
 6082SOL    HW223094   2.035   1.777   2.749
 6083SOL     OW23095   2.342   1.603   2.756
 6083SOL    HW123096   2.423   1.642   2.789
 6083SOL    HW223097   2.372   1.542   2.688
 6084SOL     OW23098   2.757   0.751   3.119
 6084SOL    HW123099   2.815   0.678   3.096
 6084SOL    HW223100   2.688   0.748   3.053
 6085SOL     OW23101   1.950   0.594   2.951
 6085SOL    HW123102   1.970   0.506   2.919
 6085SOL    HW223103   1.857   0.590   2.974
 6086SOL     OW23104   2.074   0.544   3.609
 6086SOL    HW123105   2.076   0.464   3.556
 6086SOL    HW223106   2.018   0.604   3.560
 6087SOL     OW23107   3.269   0.912   3.520
 6087SOL    HW123108   3.293   1.004   3.513
 6087SOL    HW223109   3.252   0.885   3.429
 6088SOL     OW23110   2.671   0.578   2.257
 6088SOL    HW123111   2.687   0.499   2.206
 6088SOL    HW223112   2.592   0.616   2.218
 6089SOL     OW23113   3.499   0.663   3.055
 6089SOL    HW123114   3.436   0.637   2.988
 6089SOL    HW223115   3.567   0.595   3.051
 6090SOL     OW23116   2.089   1.544   3.602
 6090SOL    HW123117   2.054   1.612   3.660
 6090SOL    HW223118   2.083   1.463   3.652
 6091SOL     OW23119   2.568   0.473   3.108
 6091SOL    HW123120   2.512   0.400   3.084
 6091SOL    HW223121   2.552   0.539   3.040
 6092SOL     OW23122   2.758   1.680   3.380
 6092SOL    HW123123   2.753   1.626   3.301
 6092SOL    HW223124   2.764   1.770   3.348
 6093SOL     OW23125   2.273   0.484   2.027
 6093SOL    HW123126   2.341   0.539   2.066
 6093SOL    HW223127   2.195   0.540   2.026
 6094SOL     OW23128   1.992   1.140   3.340
 6094SOL    HW123129   2.005   1.090   3.420
 6094SOL    HW223130   1.995   1.075   3.270
 6095SOL     OW23131   3.133   1.030   3.052
 6095SOL    HW123132   3.140   0.960   2.987
 6095SOL    HW223133   3.075   1.094   3.012
 6096SOL     OW23134   3.175   0.825   2.173
 6096SOL    HW123135   3.084   0.799   2.185
 6096SOL    HW223136   3.174   0.884   2.098
 6097SOL     OW23137   3.022   1.749   2.975
 6097SOL    HW123138   3.096   1.805   2.999
 6097SOL    HW223139   3.047   1.711   2.890
 6098SOL     OW23140   1.954   1.316   2.855
 6098SOL    HW123141   1.940   1.323   2.950
 6098SOL    HW223142   1.934   1.225   2.835
 6099SOL     OW23143   2.558   1.681   3.572
 6099SOL    HW123144   2.488   1.724   3.522
 6099SOL    HW223145   2.635   1.687   3.516
 6100SOL     OW23146   3.666   0.141   2.383
 6100SOL    HW123147   3.696   0.162   2.294
 6100SOL    HW223148   3.593   0.201   2.398
 6101SOL     OW23149   3.270   1.584   2.367
 6101SOL    HW123150   3.302   1.604   2.279
 6101SOL    HW223151   3.198   1.645   2.381
 6102SOL     OW23152   1.974   1.789   3.698
 6102SOL    HW123153   1.917   1.723   3.737
 6102SOL    HW223154   2.016   1.832   3.772
 6103SOL     OW23155   3.201   0.875   2.578
 6103SOL    HW123156   3.286   0.830   2.576
 6103SOL    HW223157   3.214   0.953   2.524
 6104SOL     OW23158   2.646   1.250   3.295
 6104SOL    HW123159   2.611   1.306   3.364
 6104SOL    HW223160   2.584   1.258   3.223
 6105SOL     OW23161   2.582   1.678   2.015
 6105SOL    HW123162   2.611   1.635   1.935
 6105SOL    HW223163   2.497   1.638   2.034
 6106SOL     OW23164   3.725   0.147   2.806
 6106SOL    HW123165   3.768   0.105   2.732
 6106SOL    HW223166   3.636   0.166   2.775
 6107SOL     OW23167   2.092   0.329   2.572
 6107SOL    HW123168   2.009   0.355   2.531
 6107SOL    HW223169   2.079   0.348   2.665
 6108SOL     OW23170   3.113   1.594   1.934
 6108SOL    HW123171   3.091   1.510   1.973
 6108SOL    HW223172   3.046   1.608   1.867
 6109SOL     OW23173   2.718   0.977   3.296
 6109SOL    HW123174   2.738   0.955   3.205
 6109SOL    HW223175   2.694   1.070   3.293
 6110SOL     OW23176   2.846   0.959   2.247
 6110SOL    HW123177   2.876   0.997   2.164
 6110SOL    HW223178   2.864   0.865   2.238
 6111SOL     OW23179   2.216   1.319   3.361
 6111SOL    HW123180   2.211   1.387   3.294
 6111SOL    HW223181   2.144   1.259   3.340
 6112SOL     OW23182   3.459   1.415   3.147
 6112SOL    HW123183   3.545   1.375   3.142
 6112SOL    HW223184   3.402   1.347   3.183
 6113SOL     OW23185   2.892   1.060   2.502
 6113SOL    HW123186   2.864   1.052   2.411
 6113SOL    HW223187   2.983   1.031   2.503
 6114SOL     OW23188   2.880   0.294   2.875
 6114SOL    HW123189   2.868   0.243   2.795
 6114SOL    HW223190   2.865   0.232   2.946
 6115SOL     OW23191   2.451   1.462   2.295
 6115SOL    HW123192   2.541   1.437   2.278
 6115SOL    HW223193   2.402   1.427   2.221
 6116SOL     OW23194   3.612   0.301   3.247
 6116SOL    HW123195   3.620   0.376   3.188
 6116SOL    HW223196   3.657   0.230   3.202
 6117SOL     OW23197   2.116   1.343   2.209
 6117SOL    HW123198   2.046   1.340   2.143
 6117SOL    HW223199   2.197   1.347   2.158
 6118SOL     OW23200   1.992   1.036   3.603
 6118SOL    HW123201   1.919   1.013   3.662
 6118SOL    HW223202   2.069   0.997   3.645
 6119SOL     OW23203   2.491   0.225   3.337
 6119SOL    HW123204   2.584   0.207   3.322
 6119SOL    HW223205   2.470   0.176   3.417
 6120SOL     OW23206   1.865   0.380   1.927
 6120SOL    HW123207   1.775   0.346   1.928
 6120SOL    HW223208   1.855   0.473   1.906
 6121SOL     OW23209   3.265   0.877   3.246
 6121SOL    HW123210   3.206   0.917   3.183
 6121SOL    HW223211   3.352   0.891   3.209
 6122SOL     OW23212   1.901   0.209   2.161
 6122SOL    HW123213   1.893   0.269   2.087
 6122SOL    HW223214   1.976   0.154   2.138
 6123SOL     OW23215   3.018   1.365   2.065
 6123SOL    HW123216   2.926   1.343   2.046
 6123SOL    HW223217   3.068   1.322   1.995
 6124SOL     OW23218   2.453   0.845   3.310
 6124SOL    HW123219   2.526   0.905   3.298
 6124SOL    HW223220   2.492   0.758   3.306
 6125SOL     OW23221   2.563   0.531   3.655
 6125SOL    HW123222   2.480   0.530   3.703
 6125SOL    HW223223   2.592   0.440   3.654
 6126SOL     OW23224   3.355   1.175   3.489
 6126SOL    HW123225   3.340   1.206   3.578
 6126SOL    HW223226   3.446   1.198   3.470
 6127SOL     OW23227   2.198   1.748   3.443
 6127SOL    HW123228   2.120   1.799   3.422
 6127SOL    HW223229   2.165   1.666   3.480
 6128SOL     OW23230   3.509   0.924   3.123
 6128SOL    HW123231   3.514   0.832   3.096
 6128SOL    HW223232   3.513   0.974   3.041
 6129SOL     OW23233   2.507   0.747   2.563
 6129SOL    HW123234   2.491   0.841   2.571
 6129SOL    HW223235   2.440   0.718   2.500
 6130SOL     OW23236   3.616   0.343   3.530
 6130SOL    HW123237   3.619   0.344   3.434
 6130SOL    HW223238   3.533   0.299   3.550
 6131SOL     OW23239   3.640   0.933   3.366
 6131SOL    HW123240   3.626   1.025   3.389
 6131SOL    HW223241   3.604   0.924   3.278
 6132SOL     OW23242   2.720   1.341   1.945
 6132SOL    HW123243   2.732   1.263   1.890
 6132SOL    HW223244   2.668   1.400   1.891
 6133SOL     OW23245   2.557   1.784   2.833
 6133SOL    HW123246   2.517   1.862   2.795
 6133SOL    HW223247   2.637   1.770   2.782
 6134SOL     OW23248   2.938   1.044   2.006
 6134SOL    HW123249   2.875   1.039   1.934
 6134SOL    HW223250   3.021   1.018   1.967
 6135SOL     OW23251   3.759   1.520   2.604
 6135SOL    HW123252   3.669   1.552   2.607
 6135SOL    HW223253   3.767   1.463   2.680
 6136SOL     OW23254   2.053   1.289   3.723
 6136SOL    HW123255   2.027   1.214   3.670
 6136SOL    HW223256   1.984   1.297   3.789
 6137SOL     OW23257   1.962   1.214   2.539
 6137SOL    HW123258   1.936   1.136   2.588
 6137SOL    HW223259   2.036   1.185   2.486
 6138SOL     OW23260   2.540   1.410   3.496
 6138SOL    HW123261   2.446   1.394   3.504
 6138SOL    HW223262   2.551   1.503   3.515
 6139SOL     OW23263   3.716   0.093   3.082
 6139SOL    HW123264   3.647   0.028   3.090
 6139SOL    HW223265   3.717   0.116   2.989
 6140SOL     OW23266   2.319   0.398   2.425
 6140SOL    HW123267   2.327   0.345   2.346
 6140SOL    HW223268   2.233   0.375   2.461
 6141SOL     OW23269   2.231   0.591   3.152
 6141SOL    HW123270   2.265   0.527   3.214
 6141SOL    HW223271   2.250   0.554   3.066
 6142SOL     OW23272   2.657   1.550   2.588
 6142SOL    HW123273   2.711   1.534   2.511
 6142SOL    HW223274   2.573   1.507   2.567
 6143SOL     OW23275   3.292   0.124   2.997
 6143SOL    HW123276   3.285   0.155   3.087
 6143SOL    HW223277   3.246   0.190   2.945
 6144SOL     OW23278   2.832   0.070   3.036
 6144SOL    HW123279   2.755   0.030   2.995
 6144SOL    HW223280   2.903   0.008   3.022
 6145SOL     OW23281   2.693   1.346   2.222
 6145SOL    HW123282   2.664   1.257   2.245
 6145SOL    HW223283   2.697   1.345   2.126
 6146SOL     OW23284   2.478   1.565   3.170
 6146SOL    HW123285   2.474   1.645   3.223
 6146SOL    HW223286   2.563   1.569   3.128
 6147SOL     OW23287   3.269   9.963   1.948
 6147SOL    HW123288   3.260   9.906   1.872
 6147SOL    HW223289   3.209   9.925   2.013
 6148SOL     OW23290   3.465   0.197   2.718
 6148SOL    HW123291   3.409   0.235   2.785
 6148SOL    HW223292   3.452   0.253   2.641
 6149SOL     OW23293   1.905   1.059   2.154
 6149SOL    HW123294   2.001   1.058   2.161
 6149SOL    HW223295   1.880   0.967   2.153
 6150SOL     OW23296   2.784   1.727   2.216
 6150SOL    HW123297   2.716   1.705   2.152
 6150SOL    HW223298   2.744   1.793   2.272
 6151SOL     OW23299   2.100   0.643   3.866
 6151SOL    HW123300   2.013   0.623   3.899
 6151SOL    HW223301   2.096   0.622   3.773
 6152SOL     OW23302   2.483   1.239   4.955
 6152SOL    HW123303   2.445   1.164   4.910
 6152SOL    HW223304   2.409   1.300   4.966
 6153SOL     OW23305   3.460   1.558   4.414
 6153SOL    HW123306   3.518   1.489   4.381
 6153SOL    HW223307   3.381   1.551   4.360
 6154SOL     OW23308   2.973   0.724   4.400
 6154SOL    HW123309   2.969   0.752   4.492
 6154SOL    HW223310   2.919   0.645   4.396
 6155SOL     OW23311   3.530   0.604   3.996
 6155SOL    HW123312   3.538   0.594   3.901
 6155SOL    HW223313   3.511   0.516   4.028
 6156SOL     OW23314   2.691   1.118   4.812
 6156SOL    HW123315   2.622   1.053   4.822
 6156SOL    HW223316   2.652   1.199   4.847
 6157SOL     OW23317   2.755   0.787   5.507
 6157SOL    HW123318   2.765   0.843   5.584
 6157SOL    HW223319   2.709   0.710   5.539
 6158SOL     OW23320   2.569   1.023   4.365
 6158SOL    HW123321   2.632   1.012   4.436
 6158SOL    HW223322   2.515   0.944   4.368
 6159SOL     OW23323   2.577   1.144   5.577
 6159SOL    HW123324   2.610   1.225   5.616
 6159SOL    HW223325   2.499   1.171   5.527
 6160SOL     OW23326   2.170   1.410   4.706
 6160SOL    HW123327   2.086   1.366   4.718
 6160SOL    HW223328   2.211   1.365   4.632
 6161SOL     OW23329   3.312   1.455   5.096
 6161SOL    HW123330   3.370   1.526   5.125
 6161SOL    HW223331   3.243   1.453   5.162
 6162SOL     OW23332   2.306   0.465   5.236
 6162SOL    HW123333   2.377   0.402   5.242
 6162SOL    HW223334   2.226   0.412   5.246
 6163SOL     OW23335   3.381   0.496   4.412
 6163SOL    HW123336   3.302   0.460   4.371
 6163SOL    HW223337   3.438   0.518   4.338
 6164SOL     OW23338   2.155   1.657   4.239
 6164SOL    HW123339   2.103   1.737   4.247
 6164SOL    HW223340   2.207   1.670   4.160
 6165SOL     OW23341   2.993   1.309   5.450
 6165SOL    HW123342   3.024   1.300   5.540
 6165SOL    HW223343   2.933   1.235   5.438
 6166SOL     OW23344   2.024   1.392   4.178
 6166SOL    HW123345   2.060   1.480   4.195
 6166SOL    HW223346   2.023   1.350   4.264
 6167SOL     OW23347   2.107   1.009   4.612
 6167SOL    HW123348   2.145   0.935   4.657
 6167SOL    HW223349   2.065   1.061   4.681
 6168SOL     OW23350   2.442   1.773   5.182
 6168SOL    HW123351   2.356   1.757   5.221
 6168SOL    HW223352   2.454   1.868   5.188
 6169SOL     OW23353   2.480   0.957   3.847
 6169SOL    HW123354   2.569   0.938   3.817
 6169SOL    HW223355   2.492   1.005   3.929
 6170SOL     OW23356   3.389   0.085   5.221
 6170SOL    HW123357   3.456   0.126   5.166
 6170SOL    HW223358   3.386   0.140   5.299
 6171SOL     OW23359   3.705   1.745   4.038
 6171SOL    HW123360   3.779   1.729   4.097
 6171SOL    HW223361   3.718   1.835   4.006
 6172SOL     OW23362   1.869   1.569   3.821
 6172SOL    HW123363   1.789   1.518   3.806
 6172SOL    HW223364   1.854   1.611   3.906
 6173SOL     OW23365   3.589   0.889   4.349
 6173SOL    HW123366   3.664   0.831   4.342
 6173SOL    HW223367   3.524   0.853   4.289
 6174SOL     OW23368   3.564   1.130   4.210
 6174SOL    HW123369   3.632   1.125   4.143
 6174SOL    HW223370   3.574   1.049   4.260
 6175SOL     OW23371   1.973   0.799   5.404
 6175SOL    HW123372   2.062   0.801   5.370
 6175SOL    HW223373   1.922   0.852   5.342
 6176SOL     OW23374   2.457   1.367   4.477
 6176SOL    HW123375   2.397   1.293   4.468
 6176SOL    HW223376   2.478   1.392   4.387
 6177SOL     OW23377   3.127   1.218   5.125
 6177SOL    HW123378   3.148   1.145   5.066
 6177SOL    HW223379   3.180   1.201   5.203
 6178SOL     OW23380   2.040   0.941   4.955
 6178SOL    HW123381   2.133   0.916   4.953
 6178SOL    HW223382   1.995   0.862   4.984
 6179SOL     OW23383   3.389   1.001   3.887
 6179SOL    HW123384   3.329   0.938   3.848
 6179SOL    HW223385   3.399   0.972   3.978
 6180SOL     OW23386   2.223   0.244   5.593
 6180SOL    HW123387   2.250   0.328   5.629
 6180SOL    HW223388   2.128   0.249   5.587
 6181SOL     OW23389   3.310   1.392   4.679
 6181SOL    HW123390   3.239   1.401   4.743
 6181SOL    HW223391   3.297   1.305   4.642
 6182SOL     OW23392   3.473   1.830   4.279
 6182SOL    HW123393   3.465   1.784   4.196
 6182SOL    HW223394   3.478   1.760   4.345
 6183SOL     OW23395   2.445   0.703   3.997
 6183SOL    HW123396   2.440   0.785   3.947
 6183SOL    HW223397   2.373   0.710   4.060
 6184SOL     OW23398   3.431   1.694   4.046
 6184SOL    HW123399   3.526   1.691   4.031
 6184SOL    HW223400   3.393   1.687   3.958
 6185SOL     OW23401   2.613   0.573   5.229
 6185SOL    HW123402   2.578   0.498   5.277
 6185SOL    HW223403   2.619   0.543   5.138
 6186SOL     OW23404   3.307   0.443   5.376
 6186SOL    HW123405   3.388   0.481   5.410
 6186SOL    HW223406   3.313   0.351   5.400
 6187SOL     OW23407   2.881   0.449   4.891
 6187SOL    HW123408   2.790   0.438   4.920
 6187SOL    HW223409   2.880   0.420   4.799
 6188SOL     OW23410   2.914   0.731   4.129
 6188SOL    HW123411   2.927   0.731   4.223
 6188SOL    HW223412   2.834   0.681   4.115
 6189SOL     OW23413   1.960   1.850   5.301
 6189SOL    HW123414   1.914   1.846   5.385
 6189SOL    HW223415   1.891   1.834   5.236
 6190SOL     OW23416   2.735   0.355   3.932
 6190SOL    HW123417   2.821   0.322   3.907
 6190SOL    HW223418   2.674   0.314   3.870
 6191SOL     OW23419   3.551   0.517   5.486
 6191SOL    HW123420   3.588   0.520   5.575
 6191SOL    HW223421   3.547   0.608   5.459
 6192SOL     OW23422   3.328   1.247   4.299
 6192SOL    HW123423   3.397   1.203   4.248
 6192SOL    HW223424   3.257   1.261   4.236
 6193SOL     OW23425   2.860   1.451   4.224
 6193SOL    HW123426   2.841   1.530   4.173
 6193SOL    HW223427   2.796   1.386   4.192
 6194SOL     OW23428   2.195   1.750   4.529
 6194SOL    HW123429   2.196   1.676   4.469
 6194SOL    HW223430   2.184   1.827   4.474
 6195SOL     OW23431   3.068   1.480   5.253
 6195SOL    HW123432   3.064   1.417   5.324
 6195SOL    HW223433   3.023   1.437   5.180
 6196SOL     OW23434   2.168   0.916   3.971
 6196SOL    HW123435   2.187   0.936   3.879
 6196SOL    HW223436   2.139   0.825   3.970
 6197SOL     OW23437   3.341   0.791   4.466
 6197SOL    HW123438   3.320   0.710   4.513
 6197SOL    HW223439   3.352   0.763   4.375
 6198SOL     OW23440   2.360   1.247   5.433
 6198SOL    HW123441   2.305   1.282   5.363
 6198SOL    HW223442   2.314   1.168   5.462
 6199SOL     OW23443   2.993   1.779   3.978
 6199SOL    HW123444   2.909   1.742   4.004
 6199SOL    HW223445   3.023   1.722   3.908
 6200SOL     OW23446   2.057   0.338   5.252
 6200SOL    HW123447   1.976   0.351   5.203
 6200SOL    HW223448   2.052   0.247   5.281
 6201SOL     OW23449   3.526   1.400   3.798
 6201SOL    HW123450   3.513   1.464   3.729
 6201SOL    HW223451   3.452   1.340   3.790
 6202SOL     OW23452   2.327   1.739   4.032
 6202SOL    HW123453   2.375   1.797   4.091
 6202SOL    HW223454   2.393   1.710   3.969
 6203SOL     OW23455   3.288   0.158   4.161
 6203SOL    HW123456   3.211   0.115   4.124
 6203SOL    HW223457   3.346   0.086   4.185
 6204SOL     OW23458   2.129   1.769   4.875
 6204SOL    HW123459   2.096   1.719   4.951
 6204SOL    HW223460   2.055   1.771   4.814
 6205SOL     OW23461   2.821   1.703   4.586
 6205SOL    HW123462   2.867   1.619   4.588
 6205SOL    HW223463   2.749   1.688   4.525
 6206SOL     OW23464   2.228   0.688   4.183
 6206SOL    HW123465   2.262   0.602   4.207
 6206SOL    HW223466   2.139   0.672   4.153
 6207SOL     OW23467   3.323   0.187   5.491
 6207SOL    HW123468   3.354   0.115   5.546
 6207SOL    HW223469   3.240   0.214   5.532
 6208SOL     OW23470   2.513   9.944   3.829
 6208SOL    HW123471   2.499   9.896   3.747
 6208SOL    HW223472   2.431   9.991   3.843
 6209SOL     OW23473   2.679   0.268   5.573
 6209SOL    HW123474   2.746   0.214   5.531
 6209SOL    HW223475   2.616   0.204   5.608
 6210SOL     OW23476   2.719   1.527   4.931
 6210SOL    HW123477   2.708   1.489   4.844
 6210SOL    HW223478   2.775   1.464   4.977
 6211SOL     OW23479   3.166   0.628   5.211
 6211SOL    HW123480   3.228   0.573   5.259
 6211SOL    HW223481   3.219   0.700   5.178
 6212SOL     OW23482   2.678   1.422   4.671
 6212SOL    HW123483   2.758   1.418   4.619
 6212SOL    HW223484   2.614   1.371   4.621
 6213SOL     OW23485   2.781   0.577   4.608
 6213SOL    HW123486   2.754   0.571   4.517
 6213SOL    HW223487   2.833   0.498   4.623
 6214SOL     OW23488   2.315   0.020   4.328
 6214SOL    HW123489   2.235   0.040   4.377
 6214SOL    HW223490   2.328   0.096   4.271
 6215SOL     OW23491   3.307   1.234   3.761
 6215SOL    HW123492   3.334   1.154   3.807
 6215SOL    HW223493   3.223   1.258   3.800
 6216SOL     OW23494   2.270   0.054   3.896
 6216SOL    HW123495   2.233   0.116   3.832
 6216SOL    HW223496   2.198   9.995   3.916
 6217SOL     OW23497   2.911   0.180   4.210
 6217SOL    HW123498   2.846   0.230   4.161
 6217SOL    HW223499   2.919   0.227   4.294
 6218SOL     OW23500   2.911   0.609   5.121
 6218SOL    HW123501   2.905   0.539   5.056
 6218SOL    HW223502   3.002   0.609   5.149
 6219SOL     OW23503   3.192   1.658   4.573
 6219SOL    HW123504   3.167   1.708   4.495
 6219SOL    HW223505   3.163   1.569   4.554
 6220SOL     OW23506   2.251   1.180   4.442
 6220SOL    HW123507   2.222   1.109   4.500
 6220SOL    HW223508   2.265   1.137   4.358
 6221SOL     OW23509   3.112   1.809   4.351
 6221SOL    HW123510   3.152   1.875   4.295
 6221SOL    HW223511   3.031   1.850   4.382
 6222SOL     OW23512   2.889   0.530   3.730
 6222SOL    HW123513   2.799   0.507   3.757
 6222SOL    HW223514   2.944   0.470   3.779
 6223SOL     OW23515   1.983   0.686   5.047
 6223SOL    HW123516   2.066   0.644   5.026
 6223SOL    HW223517   1.923   0.655   4.979
 6224SOL     OW23518   2.474   0.258   4.972
 6224SOL    HW123519   2.495   0.169   4.946
 6224SOL    HW223520   2.398   0.282   4.918
 6225SOL     OW23521   2.777   0.535   4.344
 6225SOL    HW123522   2.736   0.523   4.258
 6225SOL    HW223523   2.825   0.454   4.359
 6226SOL     OW23524   3.305   1.145   4.552
 6226SOL    HW123525   3.236   1.082   4.533
 6226SOL    HW223526   3.322   1.188   4.467
 6227SOL     OW23527   3.339   0.609   4.676
 6227SOL    HW123528   3.362   0.539   4.614
 6227SOL    HW223529   3.392   0.590   4.753
 6228SOL     OW23530   3.700   0.816   4.068
 6228SOL    HW123531   3.765   0.772   4.123
 6228SOL    HW223532   3.645   0.745   4.033
 6229SOL     OW23533   2.373   1.424   3.854
 6229SOL    HW123534   2.291   1.401   3.897
 6229SOL    HW223535   2.367   1.384   3.767
 6230SOL     OW23536   3.648   1.349   4.366
 6230SOL    HW123537   3.734   1.306   4.364
 6230SOL    HW223538   3.592   1.291   4.315
 6231SOL     OW23539   3.242   0.554   3.804
 6231SOL    HW123540   3.182   0.548   3.878
 6231SOL    HW223541   3.299   0.478   3.812
 6232SOL     OW23542   2.379   0.274   4.030
 6232SOL    HW123543   2.343   0.192   3.997
 6232SOL    HW223544   2.368   0.336   3.958
 6233SOL     OW23545   3.578   1.158   5.348
 6233SOL    HW123546   3.594   1.100   5.422
 6233SOL    HW223547   3.625   1.239   5.370
 6234SOL     OW23548   2.888   1.348   5.079
 6234SOL    HW123549   2.814   1.297   5.111
 6234SOL    HW223550   2.963   1.288   5.084
 6235SOL     OW23551   3.492   1.672   5.446
 6235SOL    HW123552   3.524   1.686   5.357
 6235SOL    HW223553   3.571   1.648   5.496
 6236SOL     OW23554   2.966   1.194   4.804
 6236SOL    HW123555   2.876   1.169   4.823
 6236SOL    HW223556   2.973   1.189   4.709
 6237SOL     OW23557   3.472   1.051   4.748
 6237SOL    HW123558   3.470   1.109   4.825
 6237SOL    HW223559   3.405   1.088   4.690
 6238SOL     OW23560   2.776   0.170   5.098
 6238SOL    HW123561   2.780   0.128   5.012
 6238SOL    HW223562   2.814   0.106   5.158
 6239SOL     OW23563   2.820   1.082   5.462
 6239SOL    HW123564   2.738   1.106   5.504
 6239SOL    HW223565   2.798   1.006   5.409
 6240SOL     OW23566   2.565   1.063   4.097
 6240SOL    HW123567   2.567   1.053   4.192
 6240SOL    HW223568   2.645   1.021   4.067
 6241SOL     OW23569   2.296   0.843   4.985
 6241SOL    HW123570   2.349   0.837   5.065
 6241SOL    HW223571   2.269   0.753   4.968
 6242SOL     OW23572   1.980   1.624   5.052
 6242SOL    HW123573   1.894   1.664   5.068
 6242SOL    HW223574   1.960   1.534   5.026
 6243SOL     OW23575   2.285   1.054   4.193
 6243SOL    HW123576   2.375   1.058   4.161
 6243SOL    HW223577   2.238   1.001   4.128
 6244SOL     OW23578   2.365   0.538   4.649
 6244SOL    HW123579   2.356   0.492   4.565
 6244SOL    HW223580   2.328   0.478   4.713
 6245SOL     OW23581   3.115   1.364   4.137
 6245SOL    HW123582   3.167   1.437   4.168
 6245SOL    HW223583   3.028   1.379   4.174
 6246SOL     OW23584   3.121   1.435   4.876
 6246SOL    HW123585   3.169   1.419   4.957
 6246SOL    HW223586   3.056   1.365   4.873
 6247SOL     OW23587   3.398   0.751   4.196
 6247SOL    HW123588   3.315   0.776   4.153
 6247SOL    HW223589   3.444   0.700   4.130
 6248SOL     OW23590   2.280   1.427   4.963
 6248SOL    HW123591   2.231   1.423   4.881
 6248SOL    HW223592   2.327   1.510   4.958
 6249SOL     OW23593   2.238   0.760   5.343
 6249SOL    HW123594   2.312   0.791   5.290
 6249SOL    HW223595   2.243   0.664   5.337
 6250SOL     OW23596   3.512   0.774   5.407
 6250SOL    HW123597   3.425   0.813   5.407
 6250SOL    HW223598   3.556   0.813   5.331
 6251SOL     OW23599   2.914   0.152   5.461
 6251SOL    HW123600   2.949   0.227   5.412
 6251SOL    HW223601   2.909   0.082   5.397
 6252SOL     OW23602   2.343   0.042   5.421
 6252SOL    HW123603   2.268   9.985   5.401
 6252SOL    HW223604   2.309   0.106   5.483
 6253SOL     OW23605   2.435   0.999   4.812
 6253SOL    HW123606   2.414   0.959   4.727
 6253SOL    HW223607   2.387   0.946   4.875
 6254SOL     OW23608   3.190   0.839   4.735
 6254SOL    HW123609   3.098   0.822   4.714
 6254SOL    HW223610   3.234   0.756   4.719
 6255SOL     OW23611   3.091   0.531   4.029
 6255SOL    HW123612   3.119   0.484   4.107
 6255SOL    HW223613   3.021   0.589   4.060
 6256SOL     OW23614   1.926   1.357   5.006
 6256SOL    HW123615   1.959   1.285   5.060
 6256SOL    HW223616   1.831   1.354   5.018
 6257SOL     OW23617   2.580   0.662   4.770
 6257SOL    HW123618   2.647   0.632   4.708
 6257SOL    HW223619   2.498   0.633   4.731
 6258SOL     OW23620   3.632   0.979   5.553
 6258SOL    HW123621   3.606   0.892   5.523
 6258SOL    HW223622   3.592   0.987   5.640
 6259SOL     OW23623   3.473   0.350   4.095
 6259SOL    HW123624   3.553   0.307   4.125
 6259SOL    HW223625   3.402   0.294   4.126
 6260SOL     OW23626   2.915   0.794   4.699
 6260SOL    HW123627   2.882   0.809   4.788
 6260SOL    HW223628   2.874   0.712   4.672
 6261SOL     OW23629   2.796   1.560   5.488
 6261SOL    HW123630   2.709   1.600   5.478
 6261SOL    HW223631   2.778   1.474   5.526
 6262SOL     OW23632   2.246   1.005   5.496
 6262SOL    HW123633   2.201   0.992   5.580
 6262SOL    HW223634   2.241   0.920   5.453
 6263SOL     OW23635   3.359   0.301   3.841
 6263SOL    HW123636   3.305   0.223   3.855
 6263SOL    HW223637   3.405   0.312   3.924
 6264SOL     OW23638   3.200   0.828   3.775
 6264SOL    HW123639   3.213   0.733   3.780
 6264SOL    HW223640   3.219   0.849   3.683
 6265SOL     OW23641   2.901   1.433   4.502
 6265SOL    HW123642   2.932   1.343   4.511
 6265SOL    HW223643   2.889   1.444   4.408
 6266SOL     OW23644   2.207   0.766   4.696
 6266SOL    HW123645   2.276   0.704   4.672
 6266SOL    HW223646   2.136   0.710   4.729
 6267SOL     OW23647   3.031   0.382   5.349
 6267SOL    HW123648   2.989   0.432   5.419
 6267SOL    HW223649   3.122   0.413   5.349
 6268SOL     OW23650   3.040   0.262   5.084
 6268SOL    HW123651   3.055   0.299   5.171
 6268SOL    HW223652   2.946   0.245   5.080
 6269SOL     OW23653   1.817   1.245   3.875
 6269SOL    HW123654   1.750   1.306   3.844
 6269SOL    HW223655   1.795   1.162   3.832
 6270SOL     OW23656   1.949   1.756   4.662
 6270SOL    HW123657   1.896   1.687   4.622
 6270SOL    HW223658   2.030   1.757   4.612
 6271SOL     OW23659   2.466   1.597   4.622
 6271SOL    HW123660   2.545   1.567   4.668
 6271SOL    HW223661   2.438   1.521   4.571
 6272SOL     OW23662   2.768   0.783   4.940
 6272SOL    HW123663   2.810   0.707   4.982
 6272SOL    HW223664   2.694   0.746   4.893
 6273SOL     OW23665   2.021   0.528   5.456
 6273SOL    HW123666   2.038   0.463   5.388
 6273SOL    HW223667   2.003   0.609   5.409
 6274SOL     OW23668   3.263   0.899   5.392
 6274SOL    HW123669   3.264   0.995   5.394
 6274SOL    HW223670   3.252   0.877   5.300
 6275SOL     OW23671   2.687   0.578   4.083
 6275SOL    HW123672   2.696   0.499   4.030
 6275SOL    HW223673   2.604   0.616   4.056
 6276SOL     OW23674   3.510   0.604   4.897
 6276SOL    HW123675   3.508   0.541   4.969
 6276SOL    HW223676   3.594   0.589   4.854
 6277SOL     OW23677   2.100   1.542   5.481
 6277SOL    HW123678   2.049   1.570   5.557
 6277SOL    HW223679   2.126   1.452   5.502
 6278SOL     OW23680   2.622   0.483   4.975
 6278SOL    HW123681   2.571   0.402   4.975
 6278SOL    HW223682   2.585   0.534   4.903
 6279SOL     OW23683   2.805   1.699   5.138
 6279SOL    HW123684   2.772   1.645   5.067
 6279SOL    HW223685   2.773   1.787   5.118
 6280SOL     OW23686   2.338   0.495   3.846
 6280SOL    HW123687   2.393   0.552   3.901
 6280SOL    HW223688   2.251   0.534   3.851
 6281SOL     OW23689   2.011   1.135   5.145
 6281SOL    HW123690   1.955   1.084   5.204
 6281SOL    HW223691   2.030   1.076   5.072
 6282SOL     OW23692   3.156   1.030   4.925
 6282SOL    HW123693   3.177   0.965   4.858
 6282SOL    HW223694   3.089   1.085   4.885
 6283SOL     OW23695   3.171   0.834   4.062
 6283SOL    HW123696   3.085   0.800   4.087
 6283SOL    HW223697   3.170   0.833   3.966
 6284SOL     OW23698   3.545   1.735   4.774
 6284SOL    HW123699   3.637   1.750   4.749
 6284SOL    HW223700   3.551   1.684   4.855
 6285SOL     OW23701   3.115   1.729   4.828
 6285SOL    HW123702   3.143   1.713   4.738
 6285SOL    HW223703   3.109   1.641   4.867
 6286SOL     OW23704   1.949   1.237   4.753
 6286SOL    HW123705   1.948   1.274   4.841
 6286SOL    HW223706   1.859   1.208   4.739
 6287SOL     OW23707   2.544   1.683   5.433
 6287SOL    HW123708   2.472   1.732   5.473
 6287SOL    HW223709   2.534   1.699   5.339
 6288SOL     OW23710   3.698   0.225   4.193
 6288SOL    HW123711   3.768   0.237   4.128
 6288SOL    HW223712   3.703   0.132   4.216
 6289SOL     OW23713   3.249   1.588   4.232
 6289SOL    HW123714   3.301   1.622   4.159
 6289SOL    HW223715   3.191   1.661   4.256
 6290SOL     OW23716   1.845   1.824   5.569
 6290SOL    HW123717   1.755   1.813   5.538
 6290SOL    HW223718   1.871   1.736   5.598
 6291SOL     OW23719   3.133   0.971   4.424
 6291SOL    HW123720   3.198   0.904   4.447
 6291SOL    HW223721   3.083   0.932   4.351
 6292SOL     OW23722   2.667   1.203   5.159
 6292SOL    HW123723   2.638   1.262   5.228
 6292SOL    HW223724   2.600   1.211   5.091
 6293SOL     OW23725   2.529   1.648   3.847
 6293SOL    HW123726   2.547   1.656   3.754
 6293SOL    HW223727   2.481   1.566   3.855
 6294SOL     OW23728   3.578   1.757   5.196
 6294SOL    HW123729   3.670   1.777   5.214
 6294SOL    HW223730   3.534   1.842   5.202
 6295SOL     OW23731   3.629   0.172   4.724
 6295SOL    HW123732   3.644   0.103   4.660
 6295SOL    HW223733   3.534   0.176   4.735
 6296SOL     OW23734   2.097   0.351   4.340
 6296SOL    HW123735   2.019   0.392   4.376
 6296SOL    HW223736   2.095   0.262   4.375
 6297SOL     OW23737   3.067   1.597   3.785
 6297SOL    HW123738   3.069   1.503   3.806
 6297SOL    HW223739   3.003   1.604   3.715
 6298SOL     OW23740   2.730   0.916   5.183
 6298SOL    HW123741   2.746   0.893   5.092
 6298SOL    HW223742   2.716   1.011   5.182
 6299SOL     OW23743   2.796   0.957   4.003
 6299SOL    HW123744   2.856   0.979   3.933
 6299SOL    HW223745   2.836   0.881   4.046
 6300SOL     OW23746   3.324   1.700   3.790
 6300SOL    HW123747   3.237   1.663   3.777
 6300SOL    HW223748   3.376   1.665   3.718
 6301SOL     OW23749   2.211   1.324   5.216
 6301SOL    HW123750   2.228   1.364   5.131
 6301SOL    HW223751   2.144   1.257   5.198
 6302SOL     OW23752   3.446   1.235   4.978
 6302SOL    HW123753   3.486   1.190   5.052
 6302SOL    HW223754   3.382   1.295   5.018
 6303SOL     OW23755   2.961   1.162   4.527
 6303SOL    HW123756   2.881   1.110   4.527
 6303SOL    HW223757   3.026   1.106   4.485
 6304SOL     OW23758   2.507   1.491   4.226
 6304SOL    HW123759   2.562   1.434   4.172
 6304SOL    HW223760   2.427   1.503   4.175
 6305SOL     OW23761   3.603   0.407   5.071
 6305SOL    HW123762   3.694   0.436   5.067
 6305SOL    HW223763   3.607   0.314   5.046
 6306SOL     OW23764   2.539   0.304   5.269
 6306SOL    HW123765   2.587   0.270   5.193
 6306SOL    HW223766   2.518   0.227   5.321
 6307SOL     OW23767   1.927   0.308   3.737
 6307SOL    HW123768   1.854   0.272   3.688
 6307SOL    HW223769   1.912   0.403   3.736
 6308SOL     OW23770   3.279   0.869   5.119
 6308SOL    HW123771   3.223   0.918   5.059
 6308SOL    HW223772   3.365   0.868   5.076
 6309SOL     OW23773   1.941   0.146   3.972
 6309SOL    HW123774   1.938   0.206   3.899
 6309SOL    HW223775   1.884   0.074   3.947
 6310SOL     OW23776   3.060   1.326   3.863
 6310SOL    HW123777   2.968   1.297   3.862
 6310SOL    HW223778   3.083   1.328   3.956
 6311SOL     OW23779   2.466   0.806   5.196
 6311SOL    HW123780   2.544   0.862   5.200
 6311SOL    HW223781   2.500   0.717   5.205
 6312SOL     OW23782   2.645   0.541   5.560
 6312SOL    HW123783   2.572   0.557   5.621
 6312SOL    HW223784   2.645   0.446   5.549
 6313SOL     OW23785   3.303   1.177   5.341
 6313SOL    HW123786   3.289   1.190   5.435
 6313SOL    HW223787   3.398   1.173   5.331
 6314SOL     OW23788   2.210   1.739   5.325
 6314SOL    HW123789   2.127   1.779   5.300
 6314SOL    HW223790   2.186   1.658   5.369
 6315SOL     OW23791   3.516   0.873   4.973
 6315SOL    HW123792   3.515   0.780   4.949
 6315SOL    HW223793   3.506   0.919   4.891
 6316SOL     OW23794   3.165   0.394   4.263
 6316SOL    HW123795   3.192   0.308   4.232
 6316SOL    HW223796   3.087   0.378   4.316
 6317SOL     OW23797   2.428   0.787   4.354
 6317SOL    HW123798   2.467   0.700   4.362
 6317SOL    HW223799   2.351   0.774   4.299
 6318SOL     OW23800   3.643   0.307   5.329
 6318SOL    HW123801   3.610   0.348   5.248
 6318SOL    HW223802   3.618   0.368   5.398
 6319SOL     OW23803   3.653   0.917   5.214
 6319SOL    HW123804   3.633   1.007   5.239
 6319SOL    HW223805   3.615   0.906   5.127
 6320SOL     OW23806   2.763   1.386   3.821
 6320SOL    HW123807   2.711   1.319   3.776
 6320SOL    HW223808   2.787   1.448   3.753
 6321SOL     OW23809   2.752   0.992   4.575
 6321SOL    HW123810   2.799   0.914   4.605
 6321SOL    HW223811   2.723   1.035   4.655
 6322SOL     OW23812   2.970   1.004   3.795
 6322SOL    HW123813   2.934   1.022   3.709
 6322SOL    HW223814   3.042   0.943   3.779
 6323SOL     OW23815   3.703   1.504   4.590
 6323SOL    HW123816   3.692   1.459   4.506
 6323SOL    HW223817   3.745   1.440   4.647
 6324SOL     OW23818   2.114   1.295   5.598
 6324SOL    HW123819   2.044   1.230   5.595
 6324SOL    HW223820   2.123   1.316   5.692
 6325SOL     OW23821   1.970   1.243   4.408
 6325SOL    HW123822   1.912   1.178   4.447
 6325SOL    HW223823   2.058   1.217   4.435
 6326SOL     OW23824   2.569   1.395   5.339
 6326SOL    HW123825   2.499   1.339   5.372
 6326SOL    HW223826   2.544   1.483   5.367
 6327SOL     OW23827   3.599   0.135   5.008
 6327SOL    HW123828   3.583   0.041   5.016
 6327SOL    HW223829   3.603   0.151   4.914
 6328SOL     OW23830   2.332   0.446   4.243
 6328SOL    HW123831   2.360   0.383   4.177
 6328SOL    HW223832   2.253   0.407   4.281
 6329SOL     OW23833   3.559   1.466   4.866
 6329SOL    HW123834   3.502   1.393   4.890
 6329SOL    HW223835   3.639   1.453   4.916
 6330SOL     OW23836   2.234   0.576   4.994
 6330SOL    HW123837   2.266   0.537   5.075
 6330SOL    HW223838   2.244   0.507   4.928
 6331SOL     OW23839   2.620   1.679   4.395
 6331SOL    HW123840   2.593   1.614   4.330
 6331SOL    HW223841   2.552   1.675   4.463
 6332SOL     OW23842   2.806   0.031   4.856
 6332SOL    HW123843   2.720   0.052   4.820
 6332SOL    HW223844   2.836   9.957   4.804
 6333SOL     OW23845   2.663   1.322   4.076
 6333SOL    HW123846   2.625   1.234   4.078
 6333SOL    HW223847   2.689   1.335   3.985
 6334SOL     OW23848   2.452   1.653   4.930
 6334SOL    HW123849   2.447   1.696   5.015
 6334SOL    HW223850   2.537   1.609   4.931
 6335SOL     OW23851   3.187   0.083   3.821
 6335SOL    HW123852   3.178   0.006   3.764
 6335SOL    HW223853   3.153   0.055   3.906
 6336SOL     OW23854   1.956   1.048   4.098
 6336SOL    HW123855   2.038   1.029   4.053
 6336SOL    HW223856   1.911   0.964   4.105
 6337SOL     OW23857   2.765   1.615   4.004
 6337SOL    HW123858   2.785   1.536   3.953
 6337SOL    HW223859   2.682   1.646   3.970
 6338SOL     OW23860   2.068   0.693   5.751
 6338SOL    HW123861   2.027   0.688   5.837
 6338SOL    HW223862   2.124   0.616   5.746
 6339SOL     OW23863   2.091   0.333   6.645
 6339SOL    HW123864   2.114   0.272   6.714
 6339SOL    HW223865   2.022   0.290   6.596
 6340SOL     OW23866   1.770   0.348   6.153
 6340SOL    HW123867   1.705   0.369   6.221
 6340SOL    HW223868   1.851   0.334   6.202
 6341SOL     OW23869   2.473   1.277   6.819
 6341SOL    HW123870   2.389   1.243   6.849
 6341SOL    HW223871   2.454   1.367   6.794
 6342SOL     OW23872   3.443   1.472   6.383
 6342SOL    HW123873   3.416   1.530   6.454
 6342SOL    HW223874   3.372   1.407   6.378
 6343SOL     OW23875   2.982   0.709   6.254
 6343SOL    HW123876   3.032   0.790   6.248
 6343SOL    HW223877   2.938   0.714   6.339
 6344SOL     OW23878   2.695   1.164   6.682
 6344SOL    HW123879   2.611   1.160   6.728
 6344SOL    HW223880   2.694   1.250   6.639
 6345SOL     OW23881   2.745   0.766   7.424
 6345SOL    HW123882   2.665   0.722   7.397
 6345SOL    HW223883   2.773   0.816   7.347
 6346SOL     OW23884   2.566   0.950   6.224
 6346SOL    HW123885   2.627   0.949   6.298
 6346SOL    HW223886   2.495   1.009   6.252
 6347SOL     OW23887   2.608   1.160   7.381
 6347SOL    HW123888   2.608   1.244   7.334
 6347SOL    HW223889   2.519   1.127   7.370
 6348SOL     OW23890   2.139   1.457   6.617
 6348SOL    HW123891   2.121   1.370   6.581
 6348SOL    HW223892   2.069   1.471   6.681
 6349SOL     OW23893   2.270   0.291   7.036
 6349SOL    HW123894   2.359   0.256   7.038
 6349SOL    HW223895   2.227   0.252   7.112
 6350SOL     OW23896   3.465   0.444   6.261
 6350SOL    HW123897   3.474   0.387   6.184
 6350SOL    HW223898   3.390   0.499   6.240
 6351SOL     OW23899   2.098   1.850   6.076
 6351SOL    HW123900   2.128   1.909   6.146
 6351SOL    HW223901   2.142   1.767   6.094
 6352SOL     OW23902   3.010   1.363   7.306
 6352SOL    HW123903   3.026   1.352   7.400
 6352SOL    HW223904   2.968   1.281   7.279
 6353SOL     OW23905   2.132   1.430   6.134
 6353SOL    HW123906   2.084   1.486   6.195
 6353SOL    HW223907   2.105   1.341   6.157
 6354SOL     OW23908   2.209   1.016   6.519
 6354SOL    HW123909   2.157   0.936   6.531
 6354SOL    HW223910   2.154   1.086   6.556
 6355SOL     OW23911   2.474   1.817   6.984
 6355SOL    HW123912   2.383   1.800   7.009
 6355SOL    HW223913   2.468   1.877   6.909
 6356SOL     OW23914   2.435   0.959   5.780
 6356SOL    HW123915   2.473   0.999   5.701
 6356SOL    HW223916   2.483   0.998   5.853
 6357SOL     OW23917   3.425   0.105   7.053
 6357SOL    HW123918   3.358   0.041   7.030
 6357SOL    HW223919   3.403   0.132   7.142
 6358SOL     OW23920   1.882   0.626   6.163
 6358SOL    HW123921   1.820   0.557   6.138
 6358SOL    HW223922   1.924   0.593   6.242
 6359SOL     OW23923   3.668   1.749   5.912
 6359SOL    HW123924   3.746   1.742   5.968
 6359SOL    HW223925   3.699   1.794   5.834
 6360SOL     OW23926   1.925   1.591   5.690
 6360SOL    HW123927   1.899   1.500   5.705
 6360SOL    HW223928   1.922   1.632   5.776
 6361SOL     OW23929   3.592   0.953   6.236
 6361SOL    HW123930   3.636   0.901   6.170
 6361SOL    HW223931   3.528   1.006   6.187
 6362SOL     OW23932   3.514   1.132   6.014
 6362SOL    HW123933   3.592   1.108   5.964
 6362SOL    HW223934   3.540   1.210   6.063
 6363SOL     OW23935   1.941   0.683   7.190
 6363SOL    HW123936   1.958   0.662   7.281
 6363SOL    HW223937   1.887   0.763   7.194
 6364SOL     OW23938   2.530   1.354   6.367
 6364SOL    HW123939   2.485   1.272   6.345
 6364SOL    HW223940   2.464   1.408   6.409
 6365SOL     OW23941   3.109   1.236   7.004
 6365SOL    HW123942   3.114   1.158   6.948
 6365SOL    HW223943   3.165   1.215   7.079
 6366SOL     OW23944   2.661   9.927   6.131
 6366SOL    HW123945   2.663   0.023   6.128
 6366SOL    HW223946   2.569   9.905   6.145
 6367SOL     OW23947   2.057   0.979   6.820
 6367SOL    HW123948   2.127   0.913   6.828
 6367SOL    HW223949   2.012   0.956   6.739
 6368SOL     OW23950   3.456   0.971   5.772
 6368SOL    HW123951   3.482   0.879   5.782
 6368SOL    HW223952   3.443   1.002   5.862
 6369SOL     OW23953   3.221   1.854   7.237
 6369SOL    HW123954   3.187   1.909   7.166
 6369SOL    HW223955   3.186   1.766   7.218
 6370SOL     OW23956   3.488   1.663   6.182
 6370SOL    HW123957   3.566   1.632   6.134
 6370SOL    HW223958   3.480   1.603   6.256
 6371SOL     OW23959   2.457   0.666   5.823
 6371SOL    HW123960   2.441   0.761   5.824
 6371SOL    HW223961   2.421   0.634   5.905
 6372SOL     OW23962   3.146   0.397   6.543
 6372SOL    HW123963   3.058   0.370   6.520
 6372SOL    HW223964   3.149   0.395   6.638
 6373SOL     OW23965   3.400   1.780   5.854
 6373SOL    HW123966   3.490   1.760   5.877
 6373SOL    HW223967   3.372   1.706   5.800
 6374SOL     OW23968   2.650   0.586   7.035
 6374SOL    HW123969   2.614   0.569   7.122
 6374SOL    HW223970   2.613   0.516   6.981
 6375SOL     OW23971   3.271   0.493   7.257
 6375SOL    HW123972   3.264   0.530   7.345
 6375SOL    HW223973   3.321   0.412   7.269
 6376SOL     OW23974   2.843   0.895   7.190
 6376SOL    HW123975   2.881   0.819   7.145
 6376SOL    HW223976   2.791   0.940   7.123
 6377SOL     OW23977   2.863   0.370   6.805
 6377SOL    HW123978   2.774   0.403   6.821
 6377SOL    HW223979   2.858   0.330   6.718
 6378SOL     OW23980   2.924   0.717   5.985
 6378SOL    HW123981   2.934   0.706   6.080
 6378SOL    HW223982   2.846   0.666   5.963
 6379SOL     OW23983   1.985   0.937   6.313
 6379SOL    HW123984   2.036   0.858   6.295
 6379SOL    HW223985   1.972   0.936   6.408
 6380SOL     OW23986   2.701   0.311   5.850
 6380SOL    HW123987   2.712   0.295   5.757
 6380SOL    HW223988   2.612   0.282   5.869
 6381SOL     OW23989   3.604   0.540   7.388
 6381SOL    HW123990   3.564   0.622   7.359
 6381SOL    HW223991   3.589   0.480   7.315
 6382SOL     OW23992   3.263   1.164   6.145
 6382SOL    HW123993   3.337   1.150   6.087
 6382SOL    HW223994   3.206   1.225   6.097
 6383SOL     OW23995   2.456   0.241   6.450
 6383SOL    HW123996   2.506   0.201   6.522
 6383SOL    HW223997   2.478   0.334   6.454
 6384SOL     OW23998   2.863   1.483   6.042
 6384SOL    HW123999   2.851   1.558   5.984
 6384SOL    HW224000   2.807   1.503   6.118
 6385SOL     OW24001   2.273   1.776   6.435
 6385SOL    HW124002   2.290   1.682   6.434
 6385SOL    HW224003   2.345   1.813   6.486
 6386SOL     OW24004   3.673   1.091   6.462
 6386SOL    HW124005   3.642   1.050   6.381
 6386SOL    HW224006   3.600   1.080   6.524
 6387SOL     OW24007   3.176   1.544   7.153
 6387SOL    HW124008   3.132   1.486   7.215
 6387SOL    HW224009   3.138   1.520   7.068
 6388SOL     OW24010   2.158   0.960   5.764
 6388SOL    HW124011   2.253   0.959   5.776
 6388SOL    HW224012   2.132   0.868   5.764
 6389SOL     OW24013   3.355   0.789   6.306
 6389SOL    HW124014   3.347   0.730   6.381
 6389SOL    HW224015   3.449   0.810   6.302
 6390SOL     OW24016   2.325   1.303   7.343
 6390SOL    HW124017   2.312   1.290   7.249
 6390SOL    HW224018   2.239   1.286   7.382
 6391SOL     OW24019   3.004   1.825   5.715
 6391SOL    HW124020   2.935   1.811   5.780
 6391SOL    HW224021   3.030   1.736   5.690
 6392SOL     OW24022   3.496   1.361   5.650
 6392SOL    HW124023   3.440   1.438   5.661
 6392SOL    HW224024   3.434   1.288   5.640
 6393SOL     OW24025   2.368   1.771   5.890
 6393SOL    HW124026   2.385   1.826   5.966
 6393SOL    HW224027   2.389   1.682   5.919
 6394SOL     OW24028   3.241   0.111   6.059
 6394SOL    HW124029   3.259   0.022   6.088
 6394SOL    HW224030   3.323   0.159   6.073
 6395SOL     OW24031   2.158   1.744   6.977
 6395SOL    HW124032   2.175   1.655   6.945
 6395SOL    HW224033   2.062   1.748   6.984
 6396SOL     OW24034   2.861   1.649   6.411
 6396SOL    HW124035   2.855   1.585   6.482
 6396SOL    HW224036   2.796   1.622   6.347
 6397SOL     OW24037   3.371   0.199   7.325
 6397SOL    HW124038   3.398   0.244   7.405
 6397SOL    HW224039   3.294   0.148   7.350
 6398SOL     OW24040   2.517   0.113   5.740
 6398SOL    HW124041   2.560   0.035   5.774
 6398SOL    HW224042   2.430   0.112   5.779
 6399SOL     OW24043   2.488   0.283   7.308
 6399SOL    HW124044   2.524   0.251   7.390
 6399SOL    HW224045   2.393   0.278   7.319
 6400SOL     OW24046   2.770   1.575   6.780
 6400SOL    HW124047   2.752   1.518   6.705
 6400SOL    HW224048   2.823   1.522   6.839
 6401SOL     OW24049   3.275   0.572   6.985
 6401SOL    HW124050   3.278   0.547   7.077
 6401SOL    HW224051   3.253   0.665   6.986
 6402SOL     OW24052   2.729   1.415   6.553
 6402SOL    HW124053   2.807   1.384   6.508
 6402SOL    HW224054   2.657   1.397   6.493
 6403SOL     OW24055   2.841   0.499   6.435
 6403SOL    HW124056   2.794   0.488   6.353
 6403SOL    HW224057   2.822   0.419   6.485
 6404SOL     OW24058   3.313   1.152   5.618
 6404SOL    HW124059   3.360   1.084   5.666
 6404SOL    HW224060   3.221   1.139   5.642
 6405SOL     OW24061   2.249   0.128   5.844
 6405SOL    HW124062   2.242   0.161   5.754
 6405SOL    HW224063   2.159   0.103   5.867
 6406SOL     OW24064   2.736   0.196   6.109
 6406SOL    HW124065   2.739   0.225   6.018
 6406SOL    HW224066   2.731   0.278   6.160
 6407SOL     OW24067   2.907   0.666   7.041
 6407SOL    HW124068   2.815   0.638   7.039
 6407SOL    HW224069   2.953   0.594   7.083
 6408SOL     OW24070   3.125   1.589   6.350
 6408SOL    HW124071   3.034   1.618   6.355
 6408SOL    HW224072   3.157   1.592   6.441
 6409SOL     OW24073   2.369   1.128   6.313
 6409SOL    HW124074   2.313   1.091   6.381
 6409SOL    HW224075   2.317   1.122   6.233
 6410SOL     OW24076   2.928   0.508   5.578
 6410SOL    HW124077   2.832   0.515   5.583
 6410SOL    HW224078   2.959   0.530   5.665
 6411SOL     OW24079   1.932   0.503   6.985
 6411SOL    HW124080   2.023   0.508   6.955
 6411SOL    HW224081   1.926   0.567   7.056
 6412SOL     OW24082   2.679   0.462   6.204
 6412SOL    HW124083   2.641   0.546   6.229
 6412SOL    HW224084   2.614   0.422   6.146
 6413SOL     OW24085   2.890   0.084   6.347
 6413SOL    HW124086   2.805   0.088   6.303
 6413SOL    HW224087   2.886   0.004   6.400
 6414SOL     OW24088   3.283   1.115   6.434
 6414SOL    HW124089   3.225   1.042   6.457
 6414SOL    HW224090   3.269   1.127   6.340
 6415SOL     OW24091   3.298   0.644   6.537
 6415SOL    HW124092   3.249   0.561   6.533
 6415SOL    HW224093   3.357   0.633   6.611
 6416SOL     OW24094   3.689   0.830   6.009
 6416SOL    HW124095   3.751   0.763   6.038
 6416SOL    HW224096   3.638   0.786   5.941
 6417SOL     OW24097   2.361   1.450   5.690
 6417SOL    HW124098   2.292   1.441   5.755
 6417SOL    HW224099   2.338   1.387   5.622
 6418SOL     OW24100   3.605   1.336   6.175
 6418SOL    HW124101   3.692   1.304   6.202
 6418SOL    HW224102   3.564   1.364   6.256
 6419SOL     OW24103   3.573   1.148   7.179
 6419SOL    HW124104   3.660   1.172   7.147
 6419SOL    HW224105   3.589   1.109   7.265
 6420SOL     OW24106   2.900   1.421   6.973
 6420SOL    HW124107   2.820   1.372   6.992
 6420SOL    HW224108   2.970   1.356   6.981
 6421SOL     OW24109   3.424   1.660   7.101
 6421SOL    HW124110   3.344   1.613   7.123
 6421SOL    HW224111   3.494   1.605   7.136
 6422SOL     OW24112   2.972   1.225   6.693
 6422SOL    HW124113   2.882   1.192   6.697
 6422SOL    HW224114   2.978   1.267   6.607
 6423SOL     OW24115   3.462   1.088   6.639
 6423SOL    HW124116   3.438   1.151   6.707
 6423SOL    HW224117   3.395   1.098   6.572
 6424SOL     OW24118   2.787   0.136   6.949
 6424SOL    HW124119   2.836   0.083   6.886
 6424SOL    HW224120   2.808   0.226   6.925
 6425SOL     OW24121   2.884   1.098   7.376
 6425SOL    HW124122   2.792   1.120   7.389
 6425SOL    HW224123   2.883   1.027   7.312
 6426SOL     OW24124   2.617   1.053   5.968
 6426SOL    HW124125   2.605   1.011   6.054
 6426SOL    HW224126   2.687   1.002   5.927
 6427SOL     OW24127   2.264   0.797   6.861
 6427SOL    HW124128   2.340   0.808   6.918
 6427SOL    HW224129   2.233   0.709   6.880
 6428SOL     OW24130   3.134   0.392   6.825
 6428SOL    HW124131   3.169   0.463   6.879
 6428SOL    HW224132   3.039   0.404   6.829
 6429SOL     OW24133   1.885   1.681   7.017
 6429SOL    HW124134   1.808   1.685   6.961
 6429SOL    HW224135   1.900   1.587   7.032
 6430SOL     OW24136   2.223   1.103   6.076
 6430SOL    HW124137   2.139   1.129   6.113
 6430SOL    HW224138   2.201   1.063   5.992
 6431SOL     OW24139   2.492   0.516   6.472
 6431SOL    HW124140   2.489   0.572   6.394
 6431SOL    HW224141   2.409   0.533   6.516
 6432SOL     OW24142   3.116   1.373   6.009
 6432SOL    HW124143   3.160   1.456   6.026
 6432SOL    HW224144   3.023   1.391   6.028
 6433SOL     OW24145   3.226   1.412   6.791
 6433SOL    HW124146   3.146   1.362   6.810
 6433SOL    HW224147   3.201   1.472   6.722
 6434SOL     OW24148   2.193   1.485   6.895
 6434SOL    HW124149   2.103   1.455   6.897
 6434SOL    HW224150   2.219   1.479   6.803
 6435SOL     OW24151   2.309   0.699   7.279
 6435SOL    HW124152   2.260   0.707   7.197
 6435SOL    HW224153   2.260   0.634   7.330
 6436SOL     OW24154   3.503   0.779   7.294
 6436SOL    HW124155   3.411   0.804   7.286
 6436SOL    HW224156   3.541   0.799   7.208
 6437SOL     OW24157   2.855   0.131   7.297
 6437SOL    HW124158   2.768   0.141   7.259
 6437SOL    HW224159   2.895   0.059   7.249
 6438SOL     OW24160   2.399   9.998   7.360
 6438SOL    HW124161   2.360   9.977   7.275
 6438SOL    HW224162   2.339   0.064   7.397
 6439SOL     OW24163   2.419   0.874   6.645
 6439SOL    HW124164   2.362   0.926   6.588
 6439SOL    HW224165   2.363   0.848   6.717
 6440SOL     OW24166   3.152   0.881   6.564
 6440SOL    HW124167   3.063   0.850   6.547
 6440SOL    HW224168   3.208   0.805   6.551
 6441SOL     OW24169   3.053   0.537   5.821
 6441SOL    HW124170   3.067   0.467   5.884
 6441SOL    HW224171   3.013   0.608   5.871
 6442SOL     OW24172   2.179   0.144   6.825
 6442SOL    HW124173   2.199   0.193   6.905
 6442SOL    HW224174   2.091   0.111   6.839
 6443SOL     OW24175   2.597   0.663   6.682
 6443SOL    HW124176   2.577   0.612   6.603
 6443SOL    HW224177   2.538   0.738   6.678
 6444SOL     OW24178   3.604   1.005   7.417
 6444SOL    HW124179   3.578   0.918   7.388
 6444SOL    HW224180   3.548   1.024   7.492
 6445SOL     OW24181   2.900   0.751   6.528
 6445SOL    HW124182   2.879   0.763   6.621
 6445SOL    HW224183   2.874   0.661   6.508
 6446SOL     OW24184   2.891   1.625   7.271
 6446SOL    HW124185   2.827   1.647   7.204
 6446SOL    HW224186   2.906   1.531   7.261
 6447SOL     OW24187   3.664   1.542   7.168
 6447SOL    HW124188   3.707   1.558   7.084
 6447SOL    HW224189   3.716   1.474   7.209
 6448SOL     OW24190   2.286   0.941   7.419
 6448SOL    HW124191   2.370   0.942   7.465
 6448SOL    HW224192   2.288   0.860   7.368
 6449SOL     OW24193   3.142   0.818   5.636
 6449SOL    HW124194   3.137   0.723   5.642
 6449SOL    HW224195   3.191   0.834   5.555
 6450SOL     OW24196   2.966   1.351   6.438
 6450SOL    HW124197   2.960   1.269   6.389
 6450SOL    HW224198   3.036   1.400   6.395
 6451SOL     OW24199   2.259   0.545   6.610
 6451SOL    HW124200   2.199   0.471   6.605
 6451SOL    HW224201   2.206   0.622   6.589
 6452SOL     OW24202   3.007   0.455   7.194
 6452SOL    HW124203   2.958   0.474   7.274
 6452SOL    HW224204   3.099   0.469   7.217
 6453SOL     OW24205   3.074   0.218   7.056
 6453SOL    HW124206   3.037   0.286   7.112
 6453SOL    HW224207   3.097   0.264   6.975
 6454SOL     OW24208   1.875   1.325   5.782
 6454SOL    HW124209   1.786   1.343   5.751
 6454SOL    HW224210   1.872   1.235   5.814
 6455SOL     OW24211   1.989   1.804   6.463
 6455SOL    HW124212   1.935   1.725   6.459
 6455SOL    HW224213   2.079   1.771   6.465
 6456SOL     OW24214   2.376   1.528   6.510
 6456SOL    HW124215   2.424   1.551   6.589
 6456SOL    HW224216   2.290   1.500   6.542
 6457SOL     OW24217   2.827   0.777   6.789
 6457SOL    HW124218   2.857   0.744   6.874
 6457SOL    HW224219   2.743   0.735   6.774
 6458SOL     OW24220   3.261   0.902   7.242
 6458SOL    HW124221   3.258   0.998   7.235
 6458SOL    HW224222   3.241   0.871   7.154
 6459SOL     OW24223   2.717   0.585   5.877
 6459SOL    HW124224   2.714   0.489   5.883
 6459SOL    HW224225   2.626   0.611   5.864
 6460SOL     OW24226   3.460   0.618   6.758
 6460SOL    HW124227   3.421   0.578   6.836
 6460SOL    HW224228   3.543   0.574   6.747
 6461SOL     OW24229   2.066   1.607   7.310
 6461SOL    HW124230   2.032   1.601   7.399
 6461SOL    HW224231   2.058   1.518   7.276
 6462SOL     OW24232   2.590   0.400   6.825
 6462SOL    HW124233   2.565   0.321   6.777
 6462SOL    HW224234   2.561   0.472   6.769
 6463SOL     OW24235   2.714   1.721   7.071
 6463SOL    HW124236   2.748   1.665   7.001
 6463SOL    HW224237   2.634   1.759   7.034
 6464SOL     OW24238   2.264   0.478   5.758
 6464SOL    HW124239   2.334   0.543   5.754
 6464SOL    HW224240   2.269   0.442   5.846
 6465SOL     OW24241   2.095   1.109   7.060
 6465SOL    HW124242   2.035   1.067   7.121
 6465SOL    HW224243   2.075   1.069   6.975
 6466SOL     OW24244   3.141   1.038   6.795
 6466SOL    HW124245   3.153   0.979   6.720
 6466SOL    HW224246   3.081   1.105   6.763
 6467SOL     OW24247   3.101   0.923   5.898
 6467SOL    HW124248   3.059   0.853   5.947
 6467SOL    HW224249   3.138   0.879   5.821
 6468SOL     OW24250   2.020   1.211   6.607
 6468SOL    HW124251   1.993   1.254   6.688
 6468SOL    HW224252   1.950   1.147   6.590
 6469SOL     OW24253   2.539   1.682   7.293
 6469SOL    HW124254   2.450   1.704   7.266
 6469SOL    HW224255   2.594   1.704   7.218
 6470SOL     OW24256   3.670   0.081   6.083
 6470SOL    HW124257   3.715   0.100   6.001
 6470SOL    HW224258   3.607   0.152   6.094
 6471SOL     OW24259   3.228   1.621   6.099
 6471SOL    HW124260   3.321   1.613   6.117
 6471SOL    HW224261   3.186   1.603   6.183
 6472SOL     OW24262   3.136   0.932   6.234
 6472SOL    HW124263   3.212   0.879   6.256
 6472SOL    HW224264   3.170   1.001   6.178
 6473SOL     OW24265   2.660   1.293   7.020
 6473SOL    HW124266   2.618   1.325   7.100
 6473SOL    HW224267   2.589   1.288   6.956
 6474SOL     OW24268   2.577   1.625   5.714
 6474SOL    HW124269   2.565   1.653   5.623
 6474SOL    HW224270   2.498   1.576   5.734
 6475SOL     OW24271   3.594   0.170   6.624
 6475SOL    HW124272   3.663   0.137   6.567
 6475SOL    HW224273   3.527   0.204   6.564
 6476SOL     OW24274   3.049   1.570   5.618
 6476SOL    HW124275   3.064   1.487   5.666
 6476SOL    HW224276   2.960   1.562   5.584
 6477SOL     OW24277   2.711   1.015   6.980
 6477SOL    HW124278   2.733   1.004   6.888
 6477SOL    HW224279   2.696   1.109   6.990
 6478SOL     OW24280   2.821   0.922   5.821
 6478SOL    HW124281   2.904   0.970   5.825
 6478SOL    HW224282   2.837   0.841   5.868
 6479SOL     OW24283   3.332   1.599   5.655
 6479SOL    HW124284   3.240   1.586   5.632
 6479SOL    HW224285   3.374   1.625   5.573
 6480SOL     OW24286   2.290   1.297   7.073
 6480SOL    HW124287   2.252   1.368   7.021
 6480SOL    HW224288   2.224   1.227   7.069
 6481SOL     OW24289   3.445   1.267   6.864
 6481SOL    HW124290   3.425   1.222   6.945
 6481SOL    HW224291   3.365   1.316   6.843
 6482SOL     OW24292   2.941   1.109   6.325
 6482SOL    HW124293   2.865   1.060   6.358
 6482SOL    HW224294   3.000   1.041   6.292
 6483SOL     OW24295   2.838   0.252   6.556
 6483SOL    HW124296   2.873   0.207   6.480
 6483SOL    HW224297   2.773   0.192   6.592
 6484SOL     OW24298   2.435   1.524   6.008
 6484SOL    HW124299   2.496   1.456   5.980
 6484SOL    HW224300   2.362   1.476   6.046
 6485SOL     OW24301   3.631   0.328   6.910
 6485SOL    HW124302   3.697   0.364   6.971
 6485SOL    HW224303   3.644   0.378   6.830
 6486SOL     OW24304   2.133   1.396   5.858
 6486SOL    HW124305   2.039   1.381   5.846
 6486SOL    HW224306   2.144   1.408   5.952
 6487SOL     OW24307   1.949   1.059   7.332
 6487SOL    HW124308   1.872   1.031   7.380
 6487SOL    HW224309   2.016   0.995   7.355
 6488SOL     OW24310   2.516   0.135   7.040
 6488SOL    HW124311   2.600   0.164   7.005
 6488SOL    HW224312   2.514   0.169   7.129
 6489SOL     OW24313   1.952   0.294   5.596
 6489SOL    HW124314   1.877   0.277   5.539
 6489SOL    HW224315   1.975   0.385   5.578
 6490SOL     OW24316   3.253   0.852   6.972
 6490SOL    HW124317   3.190   0.904   6.922
 6490SOL    HW224318   3.336   0.865   6.926
 6491SOL     OW24319   1.956   0.113   5.820
 6491SOL    HW124320   1.948   0.179   5.751
 6491SOL    HW224321   1.912   0.036   5.784
 6492SOL     OW24322   3.071   1.325   5.737
 6492SOL    HW124323   3.049   1.233   5.726
 6492SOL    HW224324   3.091   1.334   5.831
 6493SOL     OW24325   2.503   0.821   6.993
 6493SOL    HW124326   2.566   0.893   6.998
 6493SOL    HW224327   2.556   0.742   7.008
 6494SOL     OW24328   2.553   0.568   7.294
 6494SOL    HW124329   2.470   0.615   7.295
 6494SOL    HW224330   2.530   0.477   7.312
 6495SOL     OW24331   3.299   1.180   7.207
 6495SOL    HW124332   3.288   1.219   7.294
 6495SOL    HW224333   3.394   1.175   7.195
 6496SOL     OW24334   2.281   1.751   7.218
 6496SOL    HW124335   2.237   1.755   7.133
 6496SOL    HW224336   2.221   1.702   7.274
 6497SOL     OW24337   3.489   0.884   6.826
 6497SOL    HW124338   3.481   0.798   6.785
 6497SOL    HW224339   3.483   0.945   6.753
 6498SOL     OW24340   3.122   0.357   6.021
 6498SOL    HW124341   3.129   0.265   6.044
 6498SOL    HW224342   3.127   0.403   6.105
 6499SOL     OW24343   2.498   0.669   6.240
 6499SOL    HW124344   2.504   0.763   6.223
 6499SOL    HW224345   2.442   0.637   6.169
 6500SOL     OW24346   3.554   0.358   7.189
 6500SOL    HW124347   3.554   0.337   7.096
 6500SOL    HW224348   3.504   0.288   7.230
 6501SOL     OW24349   3.613   0.891   7.069
 6501SOL    HW124350   3.591   0.980   7.094
 6501SOL    HW224351   3.578   0.881   6.980
 6502SOL     OW24352   2.695   1.376   5.681
 6502SOL    HW124353   2.692   1.337   5.769
 6502SOL    HW224354   2.653   1.462   5.692
 6503SOL     OW24355   2.493   1.859   6.576
 6503SOL    HW124356   2.478   1.907   6.658
 6503SOL    HW224357   2.573   1.898   6.540
 6504SOL     OW24358   2.736   0.969   6.448
 6504SOL    HW124359   2.778   0.889   6.480
 6504SOL    HW224360   2.698   1.009   6.527
 6505SOL     OW24361   3.036   1.074   5.636
 6505SOL    HW124362   2.957   1.068   5.582
 6505SOL    HW224363   3.064   0.983   5.648
 6506SOL     OW24364   3.706   1.534   6.452
 6506SOL    HW124365   3.615   1.512   6.433
 6506SOL    HW224366   3.742   1.455   6.492
 6507SOL     OW24367   2.068   1.289   7.431
 6507SOL    HW124368   2.030   1.212   7.390
 6507SOL    HW224369   2.007   1.309   7.503
 6508SOL     OW24370   1.999   1.193   6.205
 6508SOL    HW124371   1.912   1.231   6.217
 6508SOL    HW224372   1.996   1.110   6.254
 6509SOL     OW24373   2.567   1.406   7.266
 6509SOL    HW124374   2.478   1.377   7.287
 6509SOL    HW224375   2.564   1.501   7.279
 6510SOL     OW24376   3.560   1.495   6.741
 6510SOL    HW124377   3.503   1.522   6.668
 6510SOL    HW224378   3.524   1.410   6.768
 6511SOL     OW24379   2.198   0.524   6.894
 6511SOL    HW124380   2.228   0.448   6.944
 6511SOL    HW224381   2.235   0.512   6.807
 6512SOL     OW24382   2.674   1.548   6.235
 6512SOL    HW124383   2.603   1.596   6.191
 6512SOL    HW224384   2.630   1.473   6.276
 6513SOL     OW24385   3.282   0.167   6.779
 6513SOL    HW124386   3.214   0.102   6.760
 6513SOL    HW224387   3.234   0.249   6.793
 6514SOL     OW24388   2.933   9.985   6.762
 6514SOL    HW124389   2.860   0.008   6.705
 6514SOL    HW224390   2.956   9.895   6.738
 6515SOL     OW24391   2.634   1.328   5.948
 6515SOL    HW124392   2.619   1.234   5.962
 6515SOL    HW224393   2.715   1.346   5.996
 6516SOL     OW24394   2.482   1.558   6.769
 6516SOL    HW124395   2.439   1.622   6.826
 6516SOL    HW224396   2.575   1.577   6.777
 6517SOL     OW24397   3.296   0.035   5.752
 6517SOL    HW124398   3.376   9.990   5.779
 6517SOL    HW224399   3.225   9.982   5.789
 6518SOL     OW24400   3.150   0.486   6.263
 6518SOL    HW124401   3.089   0.560   6.257
 6518SOL    HW224402   3.143   0.457   6.354
 6519SOL     OW24403   3.398   0.270   6.459
 6519SOL    HW124404   3.311   0.300   6.486
 6519SOL    HW224405   3.427   0.334   6.393
 6520SOL     OW24406   1.915   1.058   5.871
 6520SOL    HW124407   1.999   1.044   5.828
 6520SOL    HW224408   1.889   0.971   5.901
 6521SOL     OW24409   2.789   1.722   5.887
 6521SOL    HW124410   2.713   1.687   5.841
 6521SOL    HW224411   2.753   1.771   5.960
 6522SOL     OW24412   2.079   0.733   7.658
 6522SOL    HW124413   1.995   0.762   7.695
 6522SOL    HW224414   2.056   0.689   7.576
 6523SOL     OW24415   2.036   0.324   8.440
 6523SOL    HW124416   2.126   0.316   8.473
 6523SOL    HW224417   1.984   0.269   8.499
 6524SOL     OW24418   1.815   0.484   8.147
 6524SOL    HW124419   1.788   0.573   8.173
 6524SOL    HW224420   1.801   0.482   8.052
 6525SOL     OW24421   3.450   1.533   8.157
 6525SOL    HW124422   3.409   1.501   8.237
 6525SOL    HW224423   3.379   1.539   8.094
 6526SOL     OW24424   2.998   0.663   8.154
 6526SOL    HW124425   3.006   0.710   8.237
 6526SOL    HW224426   2.932   0.596   8.171
 6527SOL     OW24427   3.665   0.604   7.648
 6527SOL    HW124428   3.639   0.587   7.557
 6527SOL    HW224429   3.622   0.535   7.699
 6528SOL     OW24430   2.847   0.805   9.301
 6528SOL    HW124431   2.763   0.816   9.346
 6528SOL    HW224432   2.827   0.824   9.209
 6529SOL     OW24433   2.550   0.995   8.122
 6529SOL    HW124434   2.606   1.022   8.195
 6529SOL    HW224435   2.465   1.034   8.141
 6530SOL     OW24436   2.571   1.171   9.302
 6530SOL    HW124437   2.612   1.236   9.358
 6530SOL    HW224438   2.495   1.216   9.264
 6531SOL     OW24439   3.300   1.520   8.818
 6531SOL    HW124440   3.350   1.598   8.841
 6531SOL    HW224441   3.229   1.518   8.882
 6532SOL     OW24442   2.324   0.445   8.933
 6532SOL    HW124443   2.404   0.392   8.928
 6532SOL    HW224444   2.255   0.382   8.955
 6533SOL     OW24445   3.461   0.444   8.207
 6533SOL    HW124446   3.387   0.442   8.146
 6533SOL    HW224447   3.436   0.508   8.274
 6534SOL     OW24448   2.068   1.739   7.912
 6534SOL    HW124449   2.105   1.807   7.969
 6534SOL    HW224450   2.142   1.709   7.859
 6535SOL     OW24451   2.978   1.367   9.166
 6535SOL    HW124452   2.995   1.359   9.260
 6535SOL    HW224453   2.927   1.288   9.144
 6536SOL     OW24454   2.073   1.439   8.032
 6536SOL    HW124455   2.016   1.515   8.039
 6536SOL    HW224456   2.039   1.378   8.099
 6537SOL     OW24457   2.445   1.785   8.853
 6537SOL    HW124458   2.382   1.752   8.917
 6537SOL    HW224459   2.469   1.872   8.886
 6538SOL     OW24460   2.512   0.983   7.574
 6538SOL    HW124461   2.572   1.042   7.529
 6538SOL    HW224462   2.505   1.019   7.663
 6539SOL     OW24463   3.371   0.158   8.908
 6539SOL    HW124464   3.400   0.237   8.863
 6539SOL    HW224465   3.385   0.176   9.001
 6540SOL     OW24466   1.971   0.742   8.055
 6540SOL    HW124467   2.031   0.749   8.130
 6540SOL    HW224468   1.884   0.738   8.096
 6541SOL     OW24469   3.683   1.737   7.749
 6541SOL    HW124470   3.671   1.728   7.843
 6541SOL    HW224471   3.712   1.827   7.737
 6542SOL     OW24472   1.929   1.615   7.544
 6542SOL    HW124473   1.913   1.524   7.568
 6542SOL    HW224474   1.897   1.666   7.618
 6543SOL     OW24475   3.543   0.938   8.128
 6543SOL    HW124476   3.629   0.896   8.128
 6543SOL    HW224477   3.534   0.973   8.040
 6544SOL     OW24478   3.509   1.102   7.879
 6544SOL    HW124479   3.589   1.074   7.834
 6544SOL    HW224480   3.538   1.173   7.937
 6545SOL     OW24481   1.961   0.764   9.013
 6545SOL    HW124482   2.038   0.821   9.016
 6545SOL    HW224483   1.888   0.822   8.993
 6546SOL     OW24484   2.424   1.377   8.158
 6546SOL    HW124485   2.389   1.288   8.165
 6546SOL    HW224486   2.404   1.404   8.069
 6547SOL     OW24487   3.144   1.248   8.837
 6547SOL    HW124488   3.174   1.184   8.773
 6547SOL    HW224489   3.205   1.239   8.910
 6548SOL     OW24490   2.687   0.049   7.929
 6548SOL    HW124491   2.710   0.142   7.937
 6548SOL    HW224492   2.594   0.045   7.953
 6549SOL     OW24493   3.405   1.038   7.612
 6549SOL    HW124494   3.347   0.964   7.592
 6549SOL    HW224495   3.416   1.035   7.707
 6550SOL     OW24496   3.057   1.821   9.055
 6550SOL    HW124497   3.100   1.854   8.976
 6550SOL    HW224498   3.056   1.726   9.042
 6551SOL     OW24499   2.231   0.227   9.336
 6551SOL    HW124500   2.267   0.312   9.362
 6551SOL    HW224501   2.139   0.246   9.315
 6552SOL     OW24502   3.346   1.425   8.387
 6552SOL    HW124503   3.274   1.448   8.444
 6552SOL    HW224504   3.324   1.337   8.355
 6553SOL     OW24505   3.544   1.763   7.993
 6553SOL    HW124506   3.468   1.747   7.937
 6553SOL    HW224507   3.535   1.700   8.065
 6554SOL     OW24508   2.431   0.724   7.736
 6554SOL    HW124509   2.406   0.804   7.690
 6554SOL    HW224510   2.373   0.721   7.812
 6555SOL     OW24511   3.175   0.376   8.376
 6555SOL    HW124512   3.081   0.356   8.382
 6555SOL    HW224513   3.216   0.315   8.438
 6556SOL     OW24514   3.407   1.697   7.741
 6556SOL    HW124515   3.503   1.701   7.731
 6556SOL    HW224516   3.374   1.687   7.652
 6557SOL     OW24517   2.661   0.652   8.911
 6557SOL    HW124518   2.639   0.605   8.991
 6557SOL    HW224519   2.642   0.589   8.841
 6558SOL     OW24520   2.798   0.900   9.040
 6558SOL    HW124521   2.860   0.840   8.999
 6558SOL    HW224522   2.717   0.889   8.990
 6559SOL     OW24523   2.878   0.530   8.680
 6559SOL    HW124524   2.857   0.617   8.646
 6559SOL    HW224525   2.794   0.486   8.689
 6560SOL     OW24526   2.910   0.680   7.895
 6560SOL    HW124527   2.937   0.669   7.986
 6560SOL    HW224528   2.826   0.634   7.890
 6561SOL     OW24529   2.724   0.324   7.659
 6561SOL    HW124530   2.804   0.300   7.613
 6561SOL    HW224531   2.657   0.267   7.622
 6562SOL     OW24532   3.254   1.148   7.994
 6562SOL    HW124533   3.338   1.137   7.948
 6562SOL    HW224534   3.210   1.218   7.946
 6563SOL     OW24535   2.481   0.218   8.414
 6563SOL    HW124536   2.463   0.237   8.506
 6563SOL    HW224537   2.496   0.303   8.374
 6564SOL     OW24538   2.872   1.466   7.887
 6564SOL    HW124539   2.838   1.540   7.836
 6564SOL    HW224540   2.822   1.468   7.969
 6565SOL     OW24541   2.272   1.796   8.334
 6565SOL    HW124542   2.305   1.706   8.336
 6565SOL    HW224543   2.349   1.851   8.346
 6566SOL     OW24544   3.627   1.094   8.349
 6566SOL    HW124545   3.574   1.054   8.281
 6566SOL    HW224546   3.571   1.093   8.427
 6567SOL     OW24547   3.068   1.544   8.973
 6567SOL    HW124548   3.061   1.487   9.050
 6567SOL    HW224549   3.012   1.503   8.908
 6568SOL     OW24550   2.235   0.952   7.694
 6568SOL    HW124551   2.239   0.973   7.600
 6568SOL    HW224552   2.179   0.874   7.698
 6569SOL     OW24553   3.311   0.779   8.146
 6569SOL    HW124554   3.303   0.729   8.227
 6569SOL    HW224555   3.384   0.839   8.161
 6570SOL     OW24556   2.344   1.307   9.188
 6570SOL    HW124557   2.308   1.336   9.104
 6570SOL    HW224558   2.269   1.272   9.235
 6571SOL     OW24559   2.969   1.823   7.638
 6571SOL    HW124560   2.895   1.790   7.690
 6571SOL    HW224561   2.996   1.748   7.585
 6572SOL     OW24562   2.092   0.297   8.986
 6572SOL    HW124563   2.041   0.375   8.961
 6572SOL    HW224564   2.060   0.274   9.073
 6573SOL     OW24565   3.503   1.456   7.512
 6573SOL    HW124566   3.449   1.534   7.495
 6573SOL    HW224567   3.444   1.382   7.498
 6574SOL     OW24568   2.319   1.710   7.779
 6574SOL    HW124569   2.344   1.636   7.834
 6574SOL    HW224570   2.373   1.703   7.701
 6575SOL     OW24571   3.264   0.137   7.877
 6575SOL    HW124572   3.313   0.074   7.824
 6575SOL    HW224573   3.287   0.115   7.968
 6576SOL     OW24574   2.268   0.697   7.960
 6576SOL    HW124575   2.259   0.602   7.962
 6576SOL    HW224576   2.178   0.729   7.950
 6577SOL     OW24577   3.435   0.226   9.170
 6577SOL    HW124578   3.432   0.229   9.266
 6577SOL    HW224579   3.414   0.316   9.143
 6578SOL     OW24580   2.557   0.121   7.554
 6578SOL    HW124581   2.607   0.049   7.593
 6578SOL    HW224582   2.497   0.079   7.493
 6579SOL     OW24583   2.621   0.248   9.202
 6579SOL    HW124584   2.700   0.194   9.195
 6579SOL    HW224585   2.565   0.199   9.262
 6580SOL     OW24586   2.781   1.565   8.682
 6580SOL    HW124587   2.764   1.523   8.598
 6580SOL    HW224588   2.828   1.498   8.733
 6581SOL     OW24589   3.219   0.546   8.881
 6581SOL    HW124590   3.271   0.507   8.951
 6581SOL    HW224591   3.227   0.641   8.894
 6582SOL     OW24592   2.740   1.455   8.437
 6582SOL    HW124593   2.816   1.454   8.379
 6582SOL    HW224594   2.703   1.367   8.430
 6583SOL     OW24595   2.884   0.462   8.320
 6583SOL    HW124596   2.805   0.475   8.267
 6583SOL    HW224597   2.879   0.370   8.347
 6584SOL     OW24598   2.410   0.061   7.958
 6584SOL    HW124599   2.326   0.056   8.003
 6584SOL    HW224600   2.398   0.128   7.890
 6585SOL     OW24601   3.304   1.261   7.480
 6585SOL    HW124602   3.331   1.182   7.527
 6585SOL    HW224603   3.218   1.282   7.516
 6586SOL     OW24604   2.141   0.111   7.682
 6586SOL    HW124605   2.171   0.128   7.593
 6586SOL    HW224606   2.212   0.141   7.738
 6587SOL     OW24607   2.789   0.306   7.925
 6587SOL    HW124608   2.763   0.322   7.834
 6587SOL    HW224609   2.885   0.315   7.924
 6588SOL     OW24610   2.951   0.703   8.921
 6588SOL    HW124611   2.867   0.675   8.884
 6588SOL    HW224612   3.010   0.629   8.904
 6589SOL     OW24613   3.151   1.646   8.254
 6589SOL    HW124614   3.089   1.708   8.292
 6589SOL    HW224615   3.108   1.561   8.261
 6590SOL     OW24616   2.299   1.126   8.156
 6590SOL    HW124617   2.217   1.101   8.198
 6590SOL    HW224618   2.279   1.126   8.063
 6591SOL     OW24619   3.113   1.824   8.048
 6591SOL    HW124620   3.026   1.853   8.075
 6591SOL    HW224621   3.143   1.768   8.120
 6592SOL     OW24622   2.912   0.534   7.445
 6592SOL    HW124623   2.846   0.604   7.438
 6592SOL    HW224624   2.945   0.542   7.534
 6593SOL     OW24625   1.973   0.523   8.877
 6593SOL    HW124626   2.045   0.544   8.817
 6593SOL    HW224627   1.959   0.604   8.926
 6594SOL     OW24628   2.404   0.270   8.674
 6594SOL    HW124629   2.440   0.245   8.760
 6594SOL    HW224630   2.310   0.254   8.682
 6595SOL     OW24631   2.736   0.535   8.091
 6595SOL    HW124632   2.654   0.583   8.090
 6595SOL    HW224633   2.720   0.458   8.037
 6596SOL     OW24634   2.878   9.987   8.193
 6596SOL    HW124635   2.812   0.038   8.146
 6596SOL    HW224636   2.837   9.902   8.208
 6597SOL     OW24637   3.271   1.187   8.275
 6597SOL    HW124638   3.214   1.123   8.318
 6597SOL    HW224639   3.259   1.169   8.181
 6598SOL     OW24640   3.329   0.616   8.393
 6598SOL    HW124641   3.264   0.546   8.399
 6598SOL    HW224642   3.376   0.611   8.476
 6599SOL     OW24643   3.670   0.789   7.850
 6599SOL    HW124644   3.732   0.746   7.909
 6599SOL    HW224645   3.660   0.728   7.777
 6600SOL     OW24646   2.357   1.454   7.579
 6600SOL    HW124647   2.284   1.430   7.636
 6600SOL    HW224648   2.347   1.398   7.503
 6601SOL     OW24649   3.607   1.292   8.044
 6601SOL    HW124650   3.683   1.265   8.096
 6601SOL    HW224651   3.558   1.352   8.102
 6602SOL     OW24652   3.246   0.565   7.526
 6602SOL    HW124653   3.171   0.554   7.584
 6602SOL    HW224654   3.304   0.492   7.548
 6603SOL     OW24655   2.380   0.243   7.752
 6603SOL    HW124656   2.433   0.199   7.686
 6603SOL    HW224657   2.362   0.330   7.715
 6604SOL     OW24658   3.611   1.268   9.029
 6604SOL    HW124659   3.670   1.213   9.080
 6604SOL    HW224660   3.647   1.357   9.038
 6605SOL     OW24661   2.899   1.368   8.826
 6605SOL    HW124662   2.830   1.304   8.841
 6605SOL    HW224663   2.980   1.317   8.828
 6606SOL     OW24664   3.478   1.656   9.125
 6606SOL    HW124665   3.466   1.684   9.034
 6606SOL    HW224666   3.557   1.602   9.124
 6607SOL     OW24667   2.998   1.228   8.475
 6607SOL    HW124668   2.932   1.161   8.459
 6607SOL    HW224669   2.987   1.290   8.402
 6608SOL     OW24670   3.474   1.107   8.584
 6608SOL    HW124671   3.492   1.177   8.647
 6608SOL    HW224672   3.378   1.102   8.581
 6609SOL     OW24673   2.761   0.155   8.819
 6609SOL    HW124674   2.793   0.120   8.736
 6609SOL    HW224675   2.839   0.188   8.863
 6610SOL     OW24676   2.820   1.139   9.171
 6610SOL    HW124677   2.733   1.147   9.209
 6610SOL    HW224678   2.815   1.059   9.117
 6611SOL     OW24679   2.616   1.051   7.846
 6611SOL    HW124680   2.583   1.028   7.933
 6611SOL    HW224681   2.644   0.967   7.808
 6612SOL     OW24682   2.285   0.851   8.826
 6612SOL    HW124683   2.238   0.929   8.793
 6612SOL    HW224684   2.253   0.780   8.771
 6613SOL     OW24685   3.110   0.368   8.707
 6613SOL    HW124686   3.157   0.431   8.762
 6613SOL    HW224687   3.030   0.413   8.681
 6614SOL     OW24688   2.265   1.147   7.885
 6614SOL    HW124689   2.214   1.215   7.842
 6614SOL    HW224690   2.257   1.071   7.827
 6615SOL     OW24691   2.500   0.505   8.331
 6615SOL    HW124692   2.500   0.560   8.253
 6615SOL    HW224693   2.553   0.553   8.394
 6616SOL     OW24694   3.127   1.364   7.860
 6616SOL    HW124695   3.178   1.435   7.898
 6616SOL    HW224696   3.036   1.387   7.879
 6617SOL     OW24697   3.155   1.490   8.580
 6617SOL    HW124698   3.204   1.488   8.663
 6617SOL    HW224699   3.098   1.413   8.585
 6618SOL     OW24700   3.434   0.640   7.933
 6618SOL    HW124701   3.375   0.673   8.001
 6618SOL    HW224702   3.498   0.711   7.921
 6619SOL     OW24703   2.286   0.692   9.058
 6619SOL    HW124704   2.292   0.754   8.986
 6619SOL    HW224705   2.316   0.609   9.021
 6620SOL     OW24706   2.838   0.077   9.209
 6620SOL    HW124707   2.916   0.121   9.245
 6620SOL    HW224708   2.870   0.032   9.131
 6621SOL     OW24709   2.398   0.040   9.212
 6621SOL    HW124710   2.382   0.047   9.118
 6621SOL    HW224711   2.329   0.093   9.252
 6622SOL     OW24712   3.198   0.858   8.466
 6622SOL    HW124713   3.110   0.821   8.458
 6622SOL    HW224714   3.257   0.785   8.449
 6623SOL     OW24715   3.031   0.528   7.698
 6623SOL    HW124716   3.047   0.448   7.748
 6623SOL    HW224717   2.988   0.587   7.760
 6624SOL     OW24718   2.131   0.222   8.716
 6624SOL    HW124719   2.117   0.231   8.810
 6624SOL    HW224720   2.046   0.195   8.681
 6625SOL     OW24721   1.869   1.405   8.761
 6625SOL    HW124722   1.917   1.347   8.822
 6625SOL    HW224723   1.922   1.485   8.758
 6626SOL     OW24724   2.151   0.087   8.084
 6626SOL    HW124725   2.110   0.173   8.092
 6626SOL    HW224726   2.187   0.069   8.171
 6627SOL     OW24727   3.516   0.418   7.792
 6627SOL    HW124728   3.554   0.354   7.851
 6627SOL    HW224729   3.475   0.483   7.850
 6628SOL     OW24730   2.973   0.708   8.426
 6628SOL    HW124731   2.906   0.746   8.483
 6628SOL    HW224732   2.945   0.618   8.411
 6629SOL     OW24733   2.856   1.615   9.189
 6629SOL    HW124734   2.809   1.642   9.111
 6629SOL    HW224735   2.878   1.523   9.173
 6630SOL     OW24736   3.731   1.528   9.039
 6630SOL    HW124737   3.773   1.544   8.954
 6630SOL    HW224738   3.803   1.532   9.102
 6631SOL     OW24739   2.223   0.897   9.244
 6631SOL    HW124740   2.285   0.907   9.316
 6631SOL    HW224741   2.257   0.824   9.193
 6632SOL     OW24742   3.382   0.325   7.570
 6632SOL    HW124743   3.322   0.255   7.597
 6632SOL    HW224744   3.430   0.347   7.650
 6633SOL     OW24745   3.233   0.843   7.511
 6633SOL    HW124746   3.240   0.748   7.523
 6633SOL    HW224747   3.232   0.856   7.416
 6634SOL     OW24748   2.940   1.392   8.241
 6634SOL    HW124749   2.958   1.303   8.212
 6634SOL    HW224750   2.864   1.420   8.190
 6635SOL     OW24751   2.259   0.516   8.467
 6635SOL    HW124752   2.206   0.519   8.388
 6635SOL    HW224753   2.349   0.512   8.435
 6636SOL     OW24754   3.053   0.408   9.141
 6636SOL    HW124755   2.989   0.457   9.193
 6636SOL    HW224756   3.132   0.461   9.142
 6637SOL     OW24757   3.005   0.222   8.930
 6637SOL    HW124758   3.020   0.284   9.002
 6637SOL    HW224759   3.051   0.260   8.855
 6638SOL     OW24760   1.892   1.352   7.638
 6638SOL    HW124761   1.803   1.373   7.611
 6638SOL    HW224762   1.885   1.269   7.685
 6639SOL     OW24763   1.996   1.799   8.334
 6639SOL    HW124764   1.939   1.723   8.324
 6639SOL    HW224765   2.084   1.766   8.314
 6640SOL     OW24766   2.351   1.535   8.370
 6640SOL    HW124767   2.421   1.534   8.435
 6640SOL    HW224768   2.384   1.481   8.298
 6641SOL     OW24769   1.925   0.550   8.557
 6641SOL    HW124770   1.963   0.477   8.509
 6641SOL    HW224771   2.001   0.595   8.595
 6642SOL     OW24772   2.062   0.577   9.191
 6642SOL    HW124773   2.150   0.599   9.161
 6642SOL    HW224774   2.005   0.636   9.141
 6643SOL     OW24775   2.672   0.585   7.763
 6643SOL    HW124776   2.674   0.499   7.721
 6643SOL    HW224777   2.581   0.613   7.755
 6644SOL     OW24778   3.480   0.611   8.631
 6644SOL    HW124779   3.460   0.540   8.692
 6644SOL    HW224780   3.570   0.595   8.603
 6645SOL     OW24781   2.129   1.548   9.240
 6645SOL    HW124782   2.069   1.577   9.309
 6645SOL    HW224783   2.131   1.453   9.249
 6646SOL     OW24784   2.601   0.479   8.704
 6646SOL    HW124785   2.534   0.415   8.679
 6646SOL    HW224786   2.606   0.539   8.630
 6647SOL     OW24787   2.738   1.690   8.943
 6647SOL    HW124788   2.748   1.629   8.870
 6647SOL    HW224789   2.768   1.774   8.908
 6648SOL     OW24790   2.350   0.478   7.620
 6648SOL    HW124791   2.362   0.569   7.650
 6648SOL    HW224792   2.294   0.486   7.543
 6649SOL     OW24793   2.004   1.189   8.919
 6649SOL    HW124794   2.014   1.136   8.998
 6649SOL    HW224795   2.049   1.138   8.851
 6650SOL     OW24796   3.199   1.092   8.607
 6650SOL    HW124797   3.194   1.005   8.567
 6650SOL    HW224798   3.126   1.140   8.567
 6651SOL     OW24799   3.719   1.699   8.576
 6651SOL    HW124800   3.736   1.711   8.483
 6651SOL    HW224801   3.653   1.630   8.580
 6652SOL     OW24802   3.164   1.802   8.544
 6652SOL    HW124803   3.100   1.816   8.475
 6652SOL    HW224804   3.157   1.709   8.566
 6653SOL     OW24805   2.538   1.650   9.134
 6653SOL    HW124806   2.449   1.663   9.102
 6653SOL    HW224807   2.594   1.678   9.061
 6654SOL     OW24808   3.670   0.225   7.925
 6654SOL    HW124809   3.713   0.215   7.840
 6654SOL    HW224810   3.675   0.138   7.965
 6655SOL     OW24811   3.263   1.593   7.950
 6655SOL    HW124812   3.303   1.625   7.869
 6655SOL    HW224813   3.197   1.659   7.972
 6656SOL     OW24814   1.983   1.871   9.290
 6656SOL    HW124815   1.933   1.790   9.276
 6656SOL    HW224816   2.021   1.860   9.378
 6657SOL     OW24817   3.096   0.923   7.992
 6657SOL    HW124818   3.137   0.854   8.045
 6657SOL    HW224819   3.156   0.998   8.001
 6658SOL     OW24820   2.662   1.199   8.866
 6658SOL    HW124821   2.633   1.262   8.932
 6658SOL    HW224822   2.653   1.114   8.910
 6659SOL     OW24823   2.518   1.674   7.571
 6659SOL    HW124824   2.539   1.678   7.478
 6659SOL    HW224825   2.470   1.592   7.581
 6660SOL     OW24826   3.461   1.747   8.859
 6660SOL    HW124827   3.512   1.730   8.780
 6660SOL    HW224828   3.444   1.841   8.857
 6661SOL     OW24829   3.728   0.116   8.427
 6661SOL    HW124830   3.728   0.021   8.435
 6661SOL    HW224831   3.645   0.137   8.383
 6662SOL     OW24832   2.051   0.334   8.161
 6662SOL    HW124833   1.976   0.393   8.150
 6662SOL    HW224834   2.058   0.323   8.256
 6663SOL     OW24835   3.064   1.615   7.486
 6663SOL    HW124836   3.051   1.528   7.524
 6663SOL    HW224837   3.002   1.619   7.413
 6664SOL     OW24838   2.751   0.842   7.704
 6664SOL    HW124839   2.738   0.843   7.609
 6664SOL    HW224840   2.718   0.756   7.731
 6665SOL     OW24841   3.325   1.688   7.473
 6665SOL    HW124842   3.237   1.651   7.478
 6665SOL    HW224843   3.330   1.729   7.387
 6666SOL     OW24844   2.208   1.383   8.961
 6666SOL    HW124845   2.166   1.462   8.928
 6666SOL    HW224846   2.146   1.313   8.942
 6667SOL     OW24847   3.485   1.314   8.774
 6667SOL    HW124848   3.526   1.293   8.858
 6667SOL    HW224849   3.409   1.366   8.797
 6668SOL     OW24850   2.956   1.124   8.174
 6668SOL    HW124851   2.898   1.095   8.245
 6668SOL    HW224852   2.984   1.042   8.132
 6669SOL     OW24853   2.923   0.196   8.382
 6669SOL    HW124854   2.919   0.125   8.317
 6669SOL    HW224855   2.908   0.153   8.466
 6670SOL     OW24856   2.409   1.463   7.888
 6670SOL    HW124857   2.480   1.417   7.846
 6670SOL    HW224858   2.329   1.422   7.853
 6671SOL     OW24859   3.516   0.380   8.803
 6671SOL    HW124860   3.536   0.414   8.890
 6671SOL    HW224861   3.589   0.321   8.783
 6672SOL     OW24862   2.153   1.386   7.776
 6672SOL    HW124863   2.073   1.374   7.726
 6672SOL    HW224864   2.123   1.405   7.865
 6673SOL     OW24865   2.010   1.045   9.157
 6673SOL    HW124866   1.935   1.016   9.208
 6673SOL    HW224867   2.083   0.993   9.189
 6674SOL     OW24868   2.523   0.239   8.932
 6674SOL    HW124869   2.601   0.212   8.884
 6674SOL    HW224870   2.551   0.246   9.023
 6675SOL     OW24871   3.241   0.827   8.912
 6675SOL    HW124872   3.156   0.841   8.871
 6675SOL    HW224873   3.305   0.853   8.845
 6676SOL     OW24874   1.869   0.147   7.714
 6676SOL    HW124875   1.961   0.122   7.719
 6676SOL    HW224876   1.822   0.064   7.715
 6677SOL     OW24877   3.052   1.354   7.586
 6677SOL    HW124878   2.956   1.349   7.587
 6677SOL    HW224879   3.077   1.346   7.678
 6678SOL     OW24880   2.561   0.909   8.875
 6678SOL    HW124881   2.467   0.898   8.865
 6678SOL    HW224882   2.596   0.820   8.866
 6679SOL     OW24883   3.373   1.799   8.356
 6679SOL    HW124884   3.332   1.731   8.302
 6679SOL    HW224885   3.319   1.804   8.434
 6680SOL     OW24886   2.587   0.518   9.143
 6680SOL    HW124887   2.519   0.539   9.208
 6680SOL    HW224888   2.609   0.426   9.161
 6681SOL     OW24889   3.327   1.236   9.052
 6681SOL    HW124890   3.302   1.195   9.135
 6681SOL    HW224891   3.422   1.248   9.059
 6682SOL     OW24892   2.266   1.691   9.053
 6682SOL    HW124893   2.204   1.671   8.983
 6682SOL    HW224894   2.234   1.641   9.129
 6683SOL     OW24895   3.469   0.873   8.752
 6683SOL    HW124896   3.477   0.788   8.709
 6683SOL    HW224897   3.480   0.936   8.681
 6684SOL     OW24898   3.072   0.336   7.895
 6684SOL    HW124899   3.129   0.261   7.880
 6684SOL    HW224900   3.111   0.381   7.970
 6685SOL     OW24901   2.507   0.698   8.109
 6685SOL    HW124902   2.528   0.791   8.122
 6685SOL    HW224903   2.425   0.698   8.059
 6686SOL     OW24904   3.687   0.332   9.072
 6686SOL    HW124905   3.695   0.427   9.081
 6686SOL    HW224906   3.596   0.313   9.096
 6687SOL     OW24907   3.534   0.989   9.003
 6687SOL    HW124908   3.556   1.080   8.985
 6687SOL    HW224909   3.524   0.949   8.917
 6688SOL     OW24910   2.779   1.380   7.561
 6688SOL    HW124911   2.723   1.366   7.637
 6688SOL    HW224912   2.720   1.373   7.486
 6689SOL     OW24913   3.019   0.986   7.618
 6689SOL    HW124914   2.972   1.028   7.546
 6689SOL    HW224915   3.091   0.938   7.576
 6690SOL     OW24916   3.712   1.541   8.248
 6690SOL    HW124917   3.619   1.536   8.227
 6690SOL    HW224918   3.727   1.469   8.310
 6691SOL     OW24919   2.088   1.278   9.283
 6691SOL    HW124920   2.057   1.201   9.235
 6691SOL    HW224921   2.028   1.286   9.358
 6692SOL     OW24922   2.576   1.383   9.052
 6692SOL    HW124923   2.499   1.346   9.094
 6692SOL    HW224924   2.582   1.472   9.086
 6693SOL     OW24925   3.671   0.154   8.704
 6693SOL    HW124926   3.590   0.102   8.703
 6693SOL    HW224927   3.697   0.158   8.611
 6694SOL     OW24928   2.244   0.427   7.975
 6694SOL    HW124929   2.281   0.355   7.924
 6694SOL    HW224930   2.185   0.386   8.037
 6695SOL     OW24931   3.534   1.505   8.577
 6695SOL    HW124932   3.475   1.477   8.507
 6695SOL    HW224933   3.528   1.436   8.643
 6696SOL     OW24934   2.196   0.587   8.724
 6696SOL    HW124935   2.254   0.540   8.784
 6696SOL    HW224936   2.226   0.563   8.637
 6697SOL     OW24937   2.701   1.456   8.106
 6697SOL    HW124938   2.638   1.525   8.086
 6697SOL    HW224939   2.648   1.386   8.144
 6698SOL     OW24940   3.305   0.217   8.565
 6698SOL    HW124941   3.342   0.148   8.620
 6698SOL    HW224942   3.243   0.264   8.622
 6699SOL     OW24943   2.900   0.027   8.604
 6699SOL    HW124944   2.860   9.940   8.606
 6699SOL    HW224945   2.994   0.010   8.609
 6700SOL     OW24946   2.636   1.321   7.794
 6700SOL    HW124947   2.618   1.229   7.809
 6700SOL    HW224948   2.715   1.339   7.845
 6701SOL     OW24949   2.467   1.621   8.633
 6701SOL    HW124950   2.447   1.671   8.712
 6701SOL    HW224951   2.487   1.533   8.665
 6702SOL     OW24952   3.188   0.116   7.541
 6702SOL    HW124953   3.162   0.042   7.597
 6702SOL    HW224954   3.109   0.170   7.536
 6703SOL     OW24955   3.189   0.463   8.116
 6703SOL    HW124956   3.136   0.542   8.121
 6703SOL    HW224957   3.180   0.422   8.202
 6704SOL     OW24958   3.474   0.189   8.330
 6704SOL    HW124959   3.415   0.196   8.405
 6704SOL    HW224960   3.471   0.275   8.289
 6705SOL     OW24961   1.865   1.119   7.770
 6705SOL    HW124962   1.883   1.025   7.765
 6705SOL    HW224963   1.786   1.124   7.824
 6706SOL     OW24964   2.753   1.690   7.757
 6706SOL    HW124965   2.675   1.677   7.703
 6706SOL    HW224966   2.724   1.746   7.829
 6707SOL     OW24967   2.072   0.574   9.466
 6707SOL    HW124968   1.983   0.574   9.502
 6707SOL    HW224969   2.060   0.593   9.373
 6708SOL     OW24970   3.719   0.633   9.556
 6708SOL    HW124971   3.716   0.610   9.463
 6708SOL    HW224972   3.637   0.600   9.592
 6709SOL     OW24973   2.104   1.638   9.758
 6709SOL    HW124974   2.146   1.599   9.835
 6709SOL    HW224975   2.171   1.695   9.720
 6710SOL     OW24976   2.431   0.967   9.449
 6710SOL    HW124977   2.474   1.024   9.384
 6710SOL    HW224978   2.472   0.991   9.532
 6711SOL     OW24979   1.962   0.682   9.819
 6711SOL    HW124980   1.953   0.589   9.838
 6711SOL    HW224981   1.945   0.726   9.902
 6712SOL     OW24982   3.658   1.713   9.649
 6712SOL    HW124983   3.712   1.652   9.700
 6712SOL    HW224984   3.705   1.796   9.652
 6713SOL     OW24985   1.915   1.596   9.403
 6713SOL    HW124986   1.893   1.504   9.422
 6713SOL    HW224987   1.892   1.643   9.483
 6714SOL     OW24988   3.567   0.833   9.827
 6714SOL    HW124989   3.621   0.838   9.905
 6714SOL    HW224990   3.533   0.921   9.815
 6715SOL     OW24991   3.468   1.093   9.768
 6715SOL    HW124992   3.545   1.138   9.734
 6715SOL    HW224993   3.448   1.138   9.850
 6716SOL     OW24994   2.616   1.272   9.979
 6716SOL    HW124995   2.607   1.178   9.991
 6716SOL    HW224996   2.535   1.309   0.014
 6717SOL     OW24997   2.661   0.067   9.819
 6717SOL    HW124998   2.686   0.156   9.798
 6717SOL    HW224999   2.565   0.071   9.829
 6718SOL     OW25000   3.380   0.978   9.517
 6718SOL    HW125001   3.314   0.920   9.553
 6718SOL    HW225002   3.424   1.015   9.594
 6719SOL     OW25003   2.438   0.704   9.552
 6719SOL    HW125004   2.436   0.790   9.511
 6719SOL    HW225005   2.373   0.709   9.621
 6720SOL     OW25006   3.383   1.646   9.636
 6720SOL    HW125007   3.477   1.661   9.646
 6720SOL    HW225008   3.368   1.646   9.542
 6721SOL     OW25009   2.917   0.722   9.756
 6721SOL    HW125010   2.909   0.710   9.851
 6721SOL    HW225011   2.835   0.687   9.721
 6722SOL     OW25012   1.893   0.826   0.060
 6722SOL    HW125013   1.965   0.774   0.096
 6722SOL    HW225014   1.931   0.912   0.044
 6723SOL     OW25015   2.731   0.374   9.488
 6723SOL    HW125016   2.787   0.420   9.425
 6723SOL    HW225017   2.690   0.304   9.437
 6724SOL     OW25018   3.183   1.113   9.720
 6724SOL    HW125019   3.274   1.102   9.748
 6724SOL    HW225020   3.157   1.027   9.688
 6725SOL     OW25021   2.898   1.529   9.806
 6725SOL    HW125022   2.838   1.569   9.743
 6725SOL    HW225023   2.843   1.509   9.881
 6726SOL     OW25024   2.289   1.788   0.058
 6726SOL    HW125025   2.282   1.706   0.009
 6726SOL    HW225026   2.283   1.761   0.150
 6727SOL     OW25027   2.205   0.993   9.711
 6727SOL    HW125028   2.266   1.010   9.640
 6727SOL    HW225029   2.214   0.899   9.729
 6728SOL     OW25030   2.953   1.800   9.563
 6728SOL    HW125031   2.880   1.747   9.595
 6728SOL    HW225032   2.994   1.746   9.495
 6729SOL     OW25033   3.408   1.360   9.370
 6729SOL    HW125034   3.353   1.422   9.323
 6729SOL    HW225035   3.365   1.275   9.356
 6730SOL     OW25036   2.335   1.768   9.668
 6730SOL    HW125037   2.379   1.831   9.725
 6730SOL    HW225038   2.384   1.686   9.681
 6731SOL     OW25039   3.271   0.136   9.739
 6731SOL    HW125040   3.251   0.106   9.651
 6731SOL    HW225041   3.331   0.210   9.726
 6732SOL     OW25042   2.239   0.716   9.749
 6732SOL    HW125043   2.282   0.644   9.794
 6732SOL    HW225044   2.145   0.699   9.761
 6733SOL     OW25045   2.539   0.093   9.444
 6733SOL    HW125046   2.568   0.018   9.497
 6733SOL    HW225047   2.486   0.054   9.375
 6734SOL     OW25048   2.394   0.101   9.817
 6734SOL    HW125049   2.347   0.135   9.894
 6734SOL    HW225050   2.386   0.171   9.752
 6735SOL     OW25051   3.278   1.119   9.306
 6735SOL    HW125052   3.320   1.074   9.379
 6735SOL    HW225053   3.186   1.094   9.312
 6736SOL     OW25054   2.129   0.089   9.577
 6736SOL    HW125055   2.188   0.125   9.511
 6736SOL    HW225056   2.184   0.078   9.655
 6737SOL     OW25057   2.774   0.311   9.755
 6737SOL    HW125058   2.756   0.331   9.663
 6737SOL    HW225059   2.869   0.305   9.760
 6738SOL     OW25060   3.162   1.787   9.853
 6738SOL    HW125061   3.200   1.872   9.833
 6738SOL    HW225062   3.108   1.802   9.931
 6739SOL     OW25063   2.914   0.535   9.353
 6739SOL    HW125064   2.895   0.626   9.330
 6739SOL    HW225065   2.963   0.541   9.435
 6740SOL     OW25066   2.664   0.478   9.952
 6740SOL    HW125067   2.573   0.494   9.924
 6740SOL    HW225068   2.701   0.423   9.883
 6741SOL     OW25069   2.384   1.463   9.431
 6741SOL    HW125070   2.308   1.452   9.488
 6741SOL    HW225071   2.361   1.418   9.350
 6742SOL     OW25072   3.210   0.680   9.416
 6742SOL    HW125073   3.176   0.613   9.476
 6742SOL    HW225074   3.223   0.633   9.334
 6743SOL     OW25075   2.404   0.278   9.612
 6743SOL    HW125076   2.456   0.220   9.555
 6743SOL    HW225077   2.375   0.348   9.554
 6744SOL     OW25078   2.561   1.037   9.677
 6744SOL    HW125079   2.544   1.025   9.771
 6744SOL    HW225080   2.651   1.006   9.665
 6745SOL     OW25081   3.126   1.379   9.733
 6745SOL    HW125082   3.143   1.285   9.731
 6745SOL    HW225083   3.033   1.387   9.751
 6746SOL     OW25084   3.450   0.584   9.806
 6746SOL    HW125085   3.389   0.585   9.881
 6746SOL    HW225086   3.491   0.671   9.808
 6747SOL     OW25087   3.050   0.530   9.598
 6747SOL    HW125088   3.064   0.452   9.652
 6747SOL    HW225089   3.005   0.591   9.656
 6748SOL     OW25090   2.117   9.989   9.984
 6748SOL    HW125091   2.159   0.075   9.983
 6748SOL    HW225092   2.184   9.930   0.017
 6749SOL     OW25093   3.460   0.333   9.699
 6749SOL    HW125094   3.536   0.298   9.746
 6749SOL    HW225095   3.451   0.422   9.731
 6750SOL     OW25096   3.423   0.236   9.440
 6750SOL    HW125097   3.369   0.160   9.463
 6750SOL    HW225098   3.444   0.277   9.523
 6751SOL     OW25099   1.906   1.312   9.490
 6751SOL    HW125100   1.812   1.324   9.478
 6751SOL    HW225101   1.913   1.230   9.538
 6752SOL     OW25102   2.698   0.617   9.630
 6752SOL    HW125103   2.699   0.531   9.588
 6752SOL    HW225104   2.609   0.650   9.614
 6753SOL     OW25105   2.323   0.476   9.441
 6753SOL    HW125106   2.378   0.549   9.470
 6753SOL    HW225107   2.233   0.506   9.456
 6754SOL     OW25108   3.140   0.851   9.630
 6754SOL    HW125109   3.071   0.805   9.677
 6754SOL    HW225110   3.159   0.795   9.554
 6755SOL     OW25111   3.670   0.186   9.814
 6755SOL    HW125112   3.721   0.185   9.732
 6755SOL    HW225113   3.620   0.104   9.812
 6756SOL     OW25114   2.577   1.651   9.407
 6756SOL    HW125115   2.582   1.650   9.312
 6756SOL    HW225116   2.502   1.596   9.429
 6757SOL     OW25117   3.743   0.145   0.227
 6757SOL    HW125118   3.690   0.072   0.196
 6757SOL    HW225119   3.742   0.208   0.155
 6758SOL     OW25120   3.058   1.628   9.374
 6758SOL    HW125121   3.044   1.539   9.406
 6758SOL    HW225122   2.992   1.640   9.305
 6759SOL     OW25123   2.819   0.953   9.614
 6759SOL    HW125124   2.894   0.973   9.557
 6759SOL    HW225125   2.849   0.880   9.669
 6760SOL     OW25126   3.329   1.702   9.360
 6760SOL    HW125127   3.241   1.668   9.342
 6760SOL    HW225128   3.380   1.681   9.282
 6761SOL     OW25129   2.500   1.564   9.764
 6761SOL    HW125130   2.522   1.473   9.742
 6761SOL    HW225131   2.433   1.556   9.832
 6762SOL     OW25132   2.148   1.435   9.572
 6762SOL    HW125133   2.066   1.389   9.554
 6762SOL    HW225134   2.125   1.498   9.640
 6763SOL     OW25135   1.976   0.320   9.259
 6763SOL    HW125136   1.893   0.321   9.212
 6763SOL    HW225137   2.007   0.411   9.254
 6764SOL     OW25138   1.868   0.148   9.519
 6764SOL    HW125139   1.887   0.212   9.450
 6764SOL    HW225140   1.954   0.115   9.546
 6765SOL     OW25141   2.982   1.370   9.441
 6765SOL    HW125142   2.887   1.362   9.449
 6765SOL    HW225143   3.017   1.303   9.500
 6766SOL     OW25144   3.054   0.315   9.779
 6766SOL    HW125145   3.119   0.246   9.766
 6766SOL    HW225146   3.041   0.317   9.874
 6767SOL     OW25147   2.703   1.373   9.459
 6767SOL    HW125148   2.670   1.352   9.546
 6767SOL    HW225149   2.659   1.456   9.436
 6768SOL     OW25150   3.019   1.027   9.329
 6768SOL    HW125151   2.956   1.077   9.278
 6768SOL    HW225152   2.985   0.937   9.329
 6769SOL     OW25153   2.377   0.483   9.846
 6769SOL    HW125154   2.377   0.410   9.785
 6769SOL    HW225155   2.316   0.458   9.916
 6770SOL     OW25156   2.604   1.309   9.708
 6770SOL    HW125157   2.579   1.220   9.683
 6770SOL    HW225158   2.622   1.303   9.802
 6771SOL     OW25159   3.221   0.047   9.482
 6771SOL    HW125160   3.172   0.088   9.411
 6771SOL    HW225161   3.174   9.966   9.499
 6772SOL     OW25162   1.947   1.071   9.625
 6772SOL    HW125163   2.034   1.054   9.659
 6772SOL    HW225164   1.910   0.985   9.609
 6773SOL     OW25165   2.719   1.677   9.641
 6773SOL    HW125166   2.680   1.668   9.554
 6773SOL    HW225167   2.650   1.651   9.702
 6774SOL     OW25168   2.030   2.397   0.121
 6774SOL    HW125169   1.948   2.416   0.168
 6774SOL    HW225170   2.031   2.460   0.049
 6775SOL     OW25171   2.072   2.216   1.013
 6775SOL    HW125172   2.110   2.179   1.093
 6775SOL    HW225173   2.000   2.157   0.991
 6776SOL     OW25174   1.854   2.212   0.648
 6776SOL    HW125175   1.772   2.241   0.689
 6776SOL    HW225176   1.829   2.137   0.594
 6777SOL     OW25177   2.386   3.136   1.092
 6777SOL    HW125178   2.366   3.063   1.033
 6777SOL    HW225179   2.306   3.189   1.091
 6778SOL     OW25180   3.025   2.548   0.706
 6778SOL    HW125181   2.975   2.627   0.686
 6778SOL    HW225182   2.969   2.498   0.766
 6779SOL     OW25183   3.522   2.481   0.266
 6779SOL    HW125184   3.473   2.472   0.184
 6779SOL    HW225185   3.522   2.393   0.304
 6780SOL     OW25186   2.642   3.063   1.155
 6780SOL    HW125187   2.547   3.065   1.144
 6780SOL    HW225188   2.676   3.113   1.080
 6781SOL     OW25189   2.788   2.783   1.868
 6781SOL    HW125190   2.694   2.777   1.887
 6781SOL    HW225191   2.794   2.767   1.774
 6782SOL     OW25192   2.643   2.852   0.646
 6782SOL    HW125193   2.667   2.809   0.728
 6782SOL    HW225194   2.553   2.883   0.660
 6783SOL     OW25195   2.567   3.061   1.809
 6783SOL    HW125196   2.597   3.138   1.856
 6783SOL    HW225197   2.483   3.087   1.771
 6784SOL     OW25198   2.143   3.276   1.050
 6784SOL    HW125199   2.090   3.196   1.052
 6784SOL    HW225200   2.103   3.329   0.981
 6785SOL     OW25201   3.351   3.358   1.409
 6785SOL    HW125202   3.386   3.447   1.414
 6785SOL    HW225203   3.265   3.364   1.451
 6786SOL     OW25204   2.330   2.262   1.481
 6786SOL    HW125205   2.398   2.194   1.484
 6786SOL    HW225206   2.250   2.216   1.507
 6787SOL     OW25207   3.418   2.344   0.644
 6787SOL    HW125208   3.331   2.306   0.652
 6787SOL    HW225209   3.404   2.438   0.657
 6788SOL     OW25210   2.162   3.636   0.388
 6788SOL    HW125211   2.179   3.680   0.472
 6788SOL    HW225212   2.073   3.602   0.397
 6789SOL     OW25213   2.992   3.212   1.720
 6789SOL    HW125214   3.019   3.162   1.796
 6789SOL    HW225215   2.927   3.157   1.677
 6790SOL     OW25216   2.153   3.335   0.581
 6790SOL    HW125217   2.079   3.396   0.585
 6790SOL    HW225218   2.114   3.250   0.597
 6791SOL     OW25219   2.481   3.579   1.452
 6791SOL    HW125220   2.389   3.576   1.479
 6791SOL    HW225221   2.501   3.672   1.447
 6792SOL     OW25222   2.583   2.831   0.069
 6792SOL    HW125223   2.498   2.871   0.090
 6792SOL    HW225224   2.631   2.833   0.152
 6793SOL     OW25225   3.477   1.963   1.465
 6793SOL    HW125226   3.409   1.966   1.398
 6793SOL    HW225227   3.430   1.964   1.548
 6794SOL     OW25228   1.880   2.488   0.623
 6794SOL    HW125229   1.895   2.394   0.616
 6794SOL    HW225230   1.796   2.495   0.670
 6795SOL     OW25231   3.674   3.708   0.355
 6795SOL    HW125232   3.588   3.666   0.351
 6795SOL    HW225233   3.736   3.635   0.363
 6796SOL     OW25234   1.896   3.456   0.141
 6796SOL    HW125235   1.831   3.386   0.131
 6796SOL    HW225236   1.880   3.491   0.228
 6797SOL     OW25237   3.578   2.818   0.633
 6797SOL    HW125238   3.651   2.760   0.654
 6797SOL    HW225239   3.524   2.768   0.571
 6798SOL     OW25240   3.527   3.067   0.521
 6798SOL    HW125241   3.599   3.053   0.459
 6798SOL    HW225242   3.519   2.983   0.567
 6799SOL     OW25243   1.996   2.604   1.557
 6799SOL    HW125244   2.076   2.649   1.585
 6799SOL    HW225245   1.932   2.674   1.544
 6800SOL     OW25246   2.498   3.190   0.740
 6800SOL    HW125247   2.470   3.100   0.758
 6800SOL    HW225248   2.455   3.213   0.657
 6801SOL     OW25249   3.151   3.107   1.395
 6801SOL    HW125250   3.155   3.029   1.340
 6801SOL    HW225251   3.205   3.085   1.471
 6802SOL     OW25252   2.709   1.918   0.500
 6802SOL    HW125253   2.734   2.008   0.481
 6802SOL    HW225254   2.616   1.922   0.521
 6803SOL     OW25255   2.035   2.789   1.237
 6803SOL    HW125256   2.126   2.760   1.237
 6803SOL    HW225257   1.985   2.710   1.256
 6804SOL     OW25258   3.371   2.859   0.255
 6804SOL    HW125259   3.329   2.802   0.191
 6804SOL    HW225260   3.387   2.802   0.330
 6805SOL     OW25261   3.078   3.651   1.640
 6805SOL    HW125262   3.081   3.723   1.577
 6805SOL    HW225263   3.096   3.573   1.588
 6806SOL     OW25264   2.194   2.114   1.893
 6806SOL    HW125265   2.233   2.199   1.915
 6806SOL    HW225266   2.100   2.130   1.895
 6807SOL     OW25267   3.342   3.217   0.959
 6807SOL    HW125268   3.271   3.251   1.013
 6807SOL    HW225269   3.307   3.136   0.923
 6808SOL     OW25270   3.436   3.677   0.629
 6808SOL    HW125271   3.460   3.643   0.542
 6808SOL    HW225272   3.369   3.616   0.661
 6809SOL     OW25273   2.405   2.607   0.291
 6809SOL    HW125274   2.384   2.680   0.232
 6809SOL    HW225275   2.380   2.639   0.378
 6810SOL     OW25276   3.137   2.251   0.963
 6810SOL    HW125277   3.061   2.196   0.941
 6810SOL    HW225278   3.145   2.244   1.058
 6811SOL     OW25279   2.609   2.468   1.500
 6811SOL    HW125280   2.592   2.428   1.586
 6811SOL    HW225281   2.587   2.399   1.437
 6812SOL     OW25282   3.262   2.343   1.661
 6812SOL    HW125283   3.262   2.371   1.752
 6812SOL    HW225284   3.285   2.250   1.664
 6813SOL     OW25285   2.814   2.781   1.581
 6813SOL    HW125286   2.850   2.695   1.561
 6813SOL    HW225287   2.768   2.807   1.500
 6814SOL     OW25288   2.860   2.258   1.266
 6814SOL    HW125289   2.773   2.296   1.254
 6814SOL    HW225290   2.844   2.173   1.307
 6815SOL     OW25291   2.907   2.538   0.416
 6815SOL    HW125292   2.889   2.498   0.501
 6815SOL    HW225293   2.826   2.526   0.366
 6816SOL     OW25294   2.728   2.228   0.178
 6816SOL    HW125295   2.689   2.265   0.099
 6816SOL    HW225296   2.747   2.137   0.154
 6817SOL     OW25297   3.627   2.430   1.837
 6817SOL    HW125298   3.587   2.508   1.800
 6817SOL    HW225299   3.593   2.358   1.783
 6818SOL     OW25300   2.401   2.005   0.906
 6818SOL    HW125301   2.405   2.063   0.983
 6818SOL    HW225302   2.408   2.064   0.831
 6819SOL     OW25303   2.946   3.303   0.448
 6819SOL    HW125304   2.899   3.386   0.446
 6819SOL    HW225305   3.004   3.311   0.523
 6820SOL     OW25306   2.196   3.637   0.853
 6820SOL    HW125307   2.104   3.613   0.845
 6820SOL    HW225308   2.242   3.554   0.855
 6821SOL     OW25309   3.677   2.940   0.868
 6821SOL    HW125310   3.625   2.920   0.791
 6821SOL    HW225311   3.615   2.941   0.940
 6822SOL     OW25312   3.097   3.397   1.528
 6822SOL    HW125313   3.083   3.326   1.591
 6822SOL    HW225314   3.037   3.376   1.456
 6823SOL     OW25315   2.341   2.886   0.214
 6823SOL    HW125316   2.409   2.919   0.273
 6823SOL    HW225317   2.270   2.859   0.272
 6824SOL     OW25318   3.295   2.595   0.696
 6824SOL    HW125319   3.201   2.584   0.684
 6824SOL    HW225320   3.311   2.569   0.787
 6825SOL     OW25321   2.330   3.161   1.693
 6825SOL    HW125322   2.280   3.175   1.613
 6825SOL    HW225323   2.265   3.133   1.757
 6826SOL     OW25324   2.979   3.677   0.226
 6826SOL    HW125325   2.921   3.627   0.283
 6826SOL    HW225326   3.064   3.635   0.237
 6827SOL     OW25327   2.078   2.145   1.515
 6827SOL    HW125328   1.989   2.173   1.493
 6827SOL    HW225329   2.068   2.054   1.543
 6828SOL     OW25330   3.529   3.287   0.097
 6828SOL    HW125331   3.484   3.364   0.064
 6828SOL    HW225332   3.459   3.223   0.113
 6829SOL     OW25333   2.417   3.582   0.313
 6829SOL    HW125334   2.330   3.603   0.347
 6829SOL    HW225335   2.439   3.499   0.354
 6830SOL     OW25336   3.260   1.960   0.457
 6830SOL    HW125337   3.264   1.931   0.366
 6830SOL    HW225338   3.341   1.926   0.496
 6831SOL     OW25339   2.175   3.647   1.300
 6831SOL    HW125340   2.185   3.552   1.296
 6831SOL    HW225341   2.117   3.668   1.227
 6832SOL     OW25342   2.795   3.574   0.848
 6832SOL    HW125343   2.882   3.535   0.837
 6832SOL    HW225344   2.739   3.523   0.789
 6833SOL     OW25345   3.335   2.069   1.712
 6833SOL    HW125346   3.333   2.078   1.807
 6833SOL    HW225347   3.268   2.003   1.693
 6834SOL     OW25348   2.498   1.942   0.180
 6834SOL    HW125349   2.463   1.876   0.240
 6834SOL    HW225350   2.447   1.931   0.100
 6835SOL     OW25351   2.644   2.103   1.747
 6835SOL    HW125352   2.719   2.044   1.741
 6835SOL    HW225353   2.570   2.046   1.768
 6836SOL     OW25354   2.747   3.391   1.181
 6836SOL    HW125355   2.741   3.350   1.094
 6836SOL    HW225356   2.823   3.350   1.222
 6837SOL     OW25357   3.235   2.443   1.400
 6837SOL    HW125358   3.248   2.411   1.489
 6837SOL    HW225359   3.226   2.537   1.409
 6838SOL     OW25360   2.719   3.225   0.941
 6838SOL    HW125361   2.791   3.224   0.879
 6838SOL    HW225362   2.641   3.209   0.888
 6839SOL     OW25363   2.868   2.377   0.859
 6839SOL    HW125364   2.813   2.375   0.780
 6839SOL    HW225365   2.871   2.286   0.888
 6840SOL     OW25366   2.435   1.950   0.527
 6840SOL    HW125367   2.352   1.939   0.574
 6840SOL    HW225368   2.423   2.029   0.475
 6841SOL     OW25369   3.325   3.112   0.163
 6841SOL    HW125370   3.342   3.021   0.187
 6841SOL    HW225371   3.283   3.106   0.077
 6842SOL     OW25372   2.803   2.179   0.440
 6842SOL    HW125373   2.774   2.200   0.351
 6842SOL    HW225374   2.898   2.175   0.434
 6843SOL     OW25375   2.873   2.527   1.485
 6843SOL    HW125376   2.782   2.501   1.498
 6843SOL    HW225377   2.924   2.453   1.517
 6844SOL     OW25378   3.056   3.474   0.838
 6844SOL    HW125379   3.119   3.480   0.766
 6844SOL    HW225380   3.034   3.381   0.843
 6845SOL     OW25381   2.922   2.380   9.955
 6845SOL    HW125382   2.827   2.366   9.963
 6845SOL    HW225383   2.954   2.380   0.046
 6846SOL     OW25384   1.983   2.458   1.329
 6846SOL    HW125385   2.077   2.445   1.315
 6846SOL    HW225386   1.977   2.506   1.412
 6847SOL     OW25387   2.429   2.119   1.162
 6847SOL    HW125388   2.475   2.040   1.188
 6847SOL    HW225389   2.340   2.108   1.197
 6848SOL     OW25390   2.756   2.398   0.611
 6848SOL    HW125391   2.671   2.440   0.599
 6848SOL    HW225392   2.752   2.319   0.557
 6849SOL     OW25393   2.880   1.884   0.722
 6849SOL    HW125394   2.823   1.893   0.645
 6849SOL    HW225395   2.839   1.815   0.774
 6850SOL     OW25396   3.279   2.954   0.882
 6850SOL    HW125397   3.235   2.878   0.920
 6850SOL    HW225398   3.268   2.944   0.788
 6851SOL     OW25399   3.306   2.472   0.948
 6851SOL    HW125400   3.237   2.406   0.949
 6851SOL    HW225401   3.384   2.426   0.981
 6852SOL     OW25402   3.726   2.670   0.328
 6852SOL    HW125403   3.765   2.627   0.404
 6852SOL    HW225404   3.651   2.615   0.305
 6853SOL     OW25405   2.384   3.270   0.198
 6853SOL    HW125406   2.295   3.286   0.227
 6853SOL    HW225407   2.378   3.194   0.140
 6854SOL     OW25408   3.553   3.258   0.733
 6854SOL    HW125409   3.549   3.193   0.662
 6854SOL    HW225410   3.470   3.249   0.778
 6855SOL     OW25411   3.277   2.423   0.068
 6855SOL    HW125412   3.194   2.422   0.116
 6855SOL    HW225413   3.312   2.334   0.077
 6856SOL     OW25414   2.406   2.160   0.351
 6856SOL    HW125415   2.448   2.103   0.287
 6856SOL    HW225416   2.366   2.230   0.299
 6857SOL     OW25417   3.605   3.066   1.577
 6857SOL    HW125418   3.658   3.018   1.641
 6857SOL    HW225419   3.633   3.157   1.585
 6858SOL     OW25420   2.918   3.263   1.365
 6858SOL    HW125421   2.834   3.226   1.392
 6858SOL    HW225422   2.981   3.191   1.374
 6859SOL     OW25423   3.487   3.492   1.690
 6859SOL    HW125424   3.478   3.532   1.604
 6859SOL    HW225425   3.552   3.423   1.678
 6860SOL     OW25426   2.972   3.087   1.079
 6860SOL    HW125427   2.882   3.057   1.090
 6860SOL    HW225428   2.977   3.117   0.989
 6861SOL     OW25429   3.487   2.960   1.071
 6861SOL    HW125430   3.472   3.033   1.132
 6861SOL    HW225431   3.412   2.964   1.011
 6862SOL     OW25432   2.788   2.012   1.362
 6862SOL    HW125433   2.811   1.984   1.273
 6862SOL    HW225434   2.812   1.937   1.417
 6863SOL     OW25435   2.788   3.050   1.641
 6863SOL    HW125436   2.714   3.048   1.701
 6863SOL    HW225437   2.807   2.958   1.622
 6864SOL     OW25438   2.549   2.946   0.381
 6864SOL    HW125439   2.505   2.908   0.457
 6864SOL    HW225440   2.630   2.896   0.372
 6865SOL     OW25441   2.297   2.686   1.230
 6865SOL    HW125442   2.346   2.704   1.310
 6865SOL    HW225443   2.278   2.592   1.234
 6866SOL     OW25444   3.131   2.243   1.242
 6866SOL    HW125445   3.166   2.313   1.296
 6866SOL    HW225446   3.036   2.255   1.245
 6867SOL     OW25447   2.448   2.406   0.844
 6867SOL    HW125448   2.419   2.332   0.790
 6867SOL    HW225449   2.484   2.468   0.781
 6868SOL     OW25450   3.152   3.288   1.158
 6868SOL    HW125451   3.180   3.259   1.245
 6868SOL    HW225452   3.081   3.228   1.135
 6869SOL     OW25453   3.434   2.665   0.453
 6869SOL    HW125454   3.363   2.630   0.506
 6869SOL    HW225455   3.455   2.595   0.391
 6870SOL     OW25456   2.229   3.377   1.290
 6870SOL    HW125457   2.182   3.337   1.217
 6870SOL    HW225458   2.209   3.322   1.365
 6871SOL     OW25459   2.270   2.634   1.619
 6871SOL    HW125460   2.337   2.659   1.556
 6871SOL    HW225461   2.272   2.538   1.619
 6872SOL     OW25462   3.516   2.645   1.709
 6872SOL    HW125463   3.423   2.666   1.709
 6872SOL    HW225464   3.548   2.677   1.625
 6873SOL     OW25465   2.843   1.919   1.723
 6873SOL    HW125466   2.929   1.877   1.730
 6873SOL    HW225467   2.784   1.848   1.697
 6874SOL     OW25468   2.400   1.969   1.772
 6874SOL    HW125469   2.377   1.909   1.701
 6874SOL    HW225470   2.317   2.010   1.796
 6875SOL     OW25471   2.497   2.771   1.056
 6875SOL    HW125472   2.453   2.836   1.003
 6875SOL    HW225473   2.432   2.746   1.122
 6876SOL     OW25474   3.176   2.719   0.998
 6876SOL    HW125475   3.085   2.691   0.990
 6876SOL    HW225476   3.227   2.639   0.990
 6877SOL     OW25477   3.051   2.386   0.225
 6877SOL    HW125478   3.067   2.309   0.279
 6877SOL    HW225479   3.005   2.447   0.283
 6878SOL     OW25480   2.169   2.091   1.245
 6878SOL    HW125481   2.130   2.109   1.331
 6878SOL    HW225482   2.150   1.999   1.229
 6879SOL     OW25483   1.938   3.267   1.311
 6879SOL    HW125484   1.867   3.204   1.325
 6879SOL    HW225485   1.902   3.330   1.248
 6880SOL     OW25486   2.587   2.511   1.062
 6880SOL    HW125487   2.547   2.465   0.987
 6880SOL    HW225488   2.555   2.601   1.054
 6881SOL     OW25489   3.634   2.850   1.847
 6881SOL    HW125490   3.600   2.771   1.805
 6881SOL    HW225491   3.572   2.868   1.918
 6882SOL     OW25492   2.180   1.924   0.630
 6882SOL    HW125493   2.145   2.008   0.661
 6882SOL    HW225494   2.184   1.869   0.709
 6883SOL     OW25495   3.480   2.236   0.389
 6883SOL    HW125496   3.537   2.163   0.413
 6883SOL    HW225497   3.445   2.269   0.472
 6884SOL     OW25498   2.923   2.610   0.996
 6884SOL    HW125499   2.887   2.610   1.085
 6884SOL    HW225500   2.901   2.524   0.961
 6885SOL     OW25501   2.805   3.429   1.716
 6885SOL    HW125502   2.713   3.409   1.696
 6885SOL    HW225503   2.848   3.344   1.716
 6886SOL     OW25504   3.706   3.329   1.608
 6886SOL    HW125505   3.726   3.377   1.528
 6886SOL    HW225506   3.783   3.341   1.664
 6887SOL     OW25507   2.250   2.775   1.852
 6887SOL    HW125508   2.341   2.789   1.877
 6887SOL    HW225509   2.255   2.724   1.771
 6888SOL     OW25510   3.347   2.168   0.149
 6888SOL    HW125511   3.307   2.082   0.154
 6888SOL    HW225512   3.390   2.181   0.233
 6889SOL     OW25513   3.259   2.703   0.053
 6889SOL    HW125514   3.265   2.607   0.056
 6889SOL    HW225515   3.312   2.728   9.978
 6890SOL     OW25516   2.990   3.200   0.820
 6890SOL    HW125517   2.952   3.119   0.786
 6890SOL    HW225518   3.052   3.227   0.753
 6891SOL     OW25519   2.196   2.474   0.952
 6891SOL    HW125520   2.146   2.394   0.968
 6891SOL    HW225521   2.282   2.443   0.923
 6892SOL     OW25522   2.989   2.316   1.618
 6892SOL    HW125523   2.949   2.328   1.704
 6892SOL    HW225524   3.083   2.329   1.634
 6893SOL     OW25525   3.080   2.079   1.492
 6893SOL    HW125526   3.025   2.140   1.542
 6893SOL    HW225527   3.070   2.106   1.401
 6894SOL     OW25528   1.970   3.118   0.165
 6894SOL    HW125529   1.884   3.158   0.152
 6894SOL    HW225530   1.954   3.044   0.223
 6895SOL     OW25531   2.046   3.721   1.073
 6895SOL    HW125532   1.966   3.686   1.035
 6895SOL    HW225533   2.115   3.701   1.010
 6896SOL     OW25534   2.394   3.433   0.874
 6896SOL    HW125535   2.463   3.453   0.810
 6896SOL    HW225536   2.375   3.340   0.861
 6897SOL     OW25537   2.793   2.614   1.234
 6897SOL    HW125538   2.828   2.571   1.312
 6897SOL    HW225539   2.724   2.555   1.203
 6898SOL     OW25540   1.836   2.387   1.113
 6898SOL    HW125541   1.891   2.327   1.062
 6898SOL    HW225542   1.892   2.416   1.184
 6899SOL     OW25543   2.077   2.386   1.711
 6899SOL    HW125544   2.070   2.306   1.660
 6899SOL    HW225545   2.031   2.452   1.658
 6900SOL     OW25546   3.267   2.765   1.680
 6900SOL    HW125547   3.270   2.860   1.669
 6900SOL    HW225548   3.243   2.731   1.594
 6901SOL     OW25549   2.668   2.494   0.299
 6901SOL    HW125550   2.657   2.407   0.261
 6901SOL    HW225551   2.580   2.531   0.298
 6902SOL     OW25552   2.150   3.387   1.835
 6902SOL    HW125553   2.103   3.437   1.769
 6902SOL    HW225554   2.129   3.296   1.816
 6903SOL     OW25555   2.591   2.325   1.259
 6903SOL    HW125556   2.535   2.251   1.235
 6903SOL    HW225557   2.579   2.388   1.188
 6904SOL     OW25558   2.299   2.365   0.197
 6904SOL    HW125559   2.329   2.449   0.230
 6904SOL    HW225560   2.205   2.377   0.185
 6905SOL     OW25561   2.073   2.944   1.476
 6905SOL    HW125562   2.021   2.911   1.549
 6905SOL    HW225563   2.038   2.899   1.399
 6906SOL     OW25564   3.146   2.905   1.203
 6906SOL    HW125565   3.161   2.836   1.138
 6906SOL    HW225566   3.084   2.965   1.162
 6907SOL     OW25567   3.104   2.739   0.418
 6907SOL    HW125568   3.044   2.665   0.428
 6907SOL    HW225569   3.085   2.775   0.332
 6908SOL     OW25570   3.652   3.579   1.190
 6908SOL    HW125571   3.706   3.600   1.114
 6908SOL    HW225572   3.602   3.502   1.164
 6909SOL     OW25573   3.107   3.567   1.089
 6909SOL    HW125574   3.081   3.540   1.000
 6909SOL    HW225575   3.129   3.485   1.133
 6910SOL     OW25576   1.977   3.061   1.025
 6910SOL    HW125577   1.934   3.015   1.096
 6910SOL    HW225578   1.949   3.016   0.946
 6911SOL     OW25579   2.543   3.618   1.724
 6911SOL    HW125580   2.474   3.682   1.738
 6911SOL    HW225581   2.537   3.593   1.632
 6912SOL     OW25582   2.768   1.961   0.113
 6912SOL    HW125583   2.681   1.939   0.147
 6912SOL    HW225584   2.824   1.889   0.142
 6913SOL     OW25585   3.639   2.046   0.507
 6913SOL    HW125586   3.716   2.016   0.459
 6913SOL    HW225587   3.598   1.965   0.540
 6914SOL     OW25588   2.068   3.681   1.906
 6914SOL    HW125589   2.051   3.638   1.822
 6914SOL    HW225590   2.006   3.754   1.908
 6915SOL     OW25591   3.254   2.868   0.617
 6915SOL    HW125592   3.290   2.785   0.647
 6915SOL    HW225593   3.195   2.845   0.545
 6916SOL     OW25594   2.643   3.198   1.397
 6916SOL    HW125595   2.636   3.147   1.477
 6916SOL    HW225596   2.639   3.133   1.326
 6917SOL     OW25597   2.505   3.454   0.038
 6917SOL    HW125598   2.541   3.397   9.970
 6917SOL    HW225599   2.470   3.394   0.104
 6918SOL     OW25600   3.488   3.605   1.427
 6918SOL    HW125601   3.539   3.591   1.347
 6918SOL    HW225602   3.473   3.699   1.430
 6919SOL     OW25603   3.736   1.988   0.906
 6919SOL    HW125604   3.785   1.906   0.912
 6919SOL    HW225605   3.645   1.961   0.893
 6920SOL     OW25606   2.113   2.177   0.731
 6920SOL    HW125607   2.025   2.193   0.697
 6920SOL    HW225608   2.105   2.190   0.825
 6921SOL     OW25609   3.100   3.444   9.968
 6921SOL    HW125610   3.082   3.399   0.050
 6921SOL    HW225611   3.034   3.410   9.907
 6922SOL     OW25612   2.693   2.849   1.336
 6922SOL    HW125613   2.730   2.774   1.290
 6922SOL    HW225614   2.672   2.911   1.266
 6923SOL     OW25615   2.776   2.806   0.311
 6923SOL    HW125616   2.861   2.806   0.268
 6923SOL    HW225617   2.774   2.725   0.361
 6924SOL     OW25618   3.370   3.502   0.024
 6924SOL    HW125619   3.351   3.558   0.100
 6924SOL    HW225620   3.284   3.475   9.993
 6925SOL     OW25621   2.144   3.203   1.485
 6925SOL    HW125622   2.066   3.237   1.442
 6925SOL    HW225623   2.133   3.108   1.485
 6926SOL     OW25624   3.508   3.154   1.319
 6926SOL    HW125625   3.524   3.102   1.397
 6926SOL    HW225626   3.443   3.219   1.346
 6927SOL     OW25627   2.870   2.974   0.744
 6927SOL    HW125628   2.836   2.917   0.814
 6927SOL    HW225629   2.812   2.957   0.670
 6928SOL     OW25630   2.915   2.100   0.905
 6928SOL    HW125631   2.904   2.035   0.836
 6928SOL    HW225632   2.895   2.053   0.986
 6929SOL     OW25633   2.415   3.350   0.487
 6929SOL    HW125634   2.413   3.293   0.410
 6929SOL    HW225635   2.324   3.350   0.518
 6930SOL     OW25636   3.569   2.217   1.386
 6930SOL    HW125637   3.659   2.249   1.385
 6930SOL    HW225638   3.576   2.128   1.420
 6931SOL     OW25639   2.135   3.311   0.287
 6931SOL    HW125640   2.070   3.254   0.246
 6931SOL    HW225641   2.104   3.323   0.377
 6932SOL     OW25642   1.999   2.877   1.746
 6932SOL    HW125643   1.914   2.850   1.782
 6932SOL    HW225644   2.063   2.824   1.793
 6933SOL     OW25645   2.545   2.078   1.483
 6933SOL    HW125646   2.625   2.063   1.433
 6933SOL    HW225647   2.576   2.095   1.572
 6934SOL     OW25648   1.979   2.134   0.027
 6934SOL    HW125649   1.943   2.089   0.104
 6934SOL    HW225650   1.989   2.224   0.056
 6935SOL     OW25651   3.254   2.729   1.403
 6935SOL    HW125652   3.194   2.780   1.349
 6935SOL    HW225653   3.337   2.732   1.356
 6936SOL     OW25654   1.915   2.008   0.269
 6936SOL    HW125655   1.848   2.018   0.336
 6936SOL    HW225656   1.998   2.005   0.317
 6937SOL     OW25657   3.005   3.297   0.177
 6937SOL    HW125658   2.926   3.267   0.131
 6937SOL    HW225659   2.983   3.289   0.270
 6938SOL     OW25660   2.476   2.698   1.440
 6938SOL    HW125661   2.542   2.762   1.415
 6938SOL    HW225662   2.525   2.619   1.462
 6939SOL     OW25663   3.262   3.761   0.951
 6939SOL    HW125664   3.267   3.711   0.870
 6939SOL    HW225665   3.212   3.704   1.011
 6940SOL     OW25666   2.580   2.368   1.757
 6940SOL    HW125667   2.503   2.367   1.814
 6940SOL    HW225668   2.610   2.277   1.754
 6941SOL     OW25669   3.325   3.041   1.612
 6941SOL    HW125670   3.311   3.063   1.705
 6941SOL    HW225671   3.419   3.048   1.600
 6942SOL     OW25672   2.233   3.641   1.568
 6942SOL    HW125673   2.202   3.657   1.479
 6942SOL    HW225674   2.157   3.604   1.613
 6943SOL     OW25675   3.490   2.747   1.250
 6943SOL    HW125676   3.500   2.667   1.199
 6943SOL    HW225677   3.491   2.817   1.185
 6944SOL     OW25678   3.088   2.186   0.432
 6944SOL    HW125679   3.140   2.106   0.429
 6944SOL    HW225680   3.107   2.223   0.518
 6945SOL     OW25681   2.505   2.516   0.601
 6945SOL    HW125682   2.461   2.597   0.575
 6945SOL    HW225683   2.442   2.447   0.578
 6946SOL     OW25684   3.559   2.226   1.671
 6946SOL    HW125685   3.545   2.249   1.579
 6946SOL    HW225686   3.492   2.160   1.689
 6947SOL     OW25687   3.618   2.781   1.492
 6947SOL    HW125688   3.610   2.876   1.504
 6947SOL    HW225689   3.577   2.765   1.407
 6948SOL     OW25690   2.762   3.239   0.054
 6948SOL    HW125691   2.732   3.218   0.143
 6948SOL    HW225692   2.686   3.219   9.998
 6949SOL     OW25693   2.639   3.705   1.034
 6949SOL    HW125694   2.549   3.680   1.018
 6949SOL    HW225695   2.690   3.656   0.969
 6950SOL     OW25696   2.739   2.802   0.913
 6950SOL    HW125697   2.795   2.731   0.945
 6950SOL    HW225698   2.659   2.795   0.965
 6951SOL     OW25699   3.014   2.797   0.157
 6951SOL    HW125700   2.959   2.825   0.084
 6951SOL    HW225701   3.095   2.766   0.116
 6952SOL     OW25702   3.771   3.379   0.843
 6952SOL    HW125703   3.688   3.353   0.803
 6952SOL    HW225704   3.797   3.304   0.896
 6953SOL     OW25705   2.089   3.121   1.829
 6953SOL    HW125706   2.064   3.040   1.784
 6953SOL    HW225707   2.026   3.128   1.901
 6954SOL     OW25708   1.986   3.117   0.595
 6954SOL    HW125709   1.902   3.162   0.606
 6954SOL    HW225710   1.966   3.043   0.538
 6955SOL     OW25711   2.538   3.341   1.655
 6955SOL    HW125712   2.474   3.269   1.659
 6955SOL    HW225713   2.493   3.415   1.696
 6956SOL     OW25714   3.666   1.978   1.233
 6956SOL    HW125715   3.685   1.946   1.322
 6956SOL    HW225716   3.665   1.899   1.179
 6957SOL     OW25717   2.356   2.262   0.620
 6957SOL    HW125718   2.367   2.229   0.531
 6957SOL    HW225719   2.267   2.237   0.644
 6958SOL     OW25720   3.531   3.350   1.114
 6958SOL    HW125721   3.474   3.319   1.045
 6958SOL    HW225722   3.527   3.282   1.181
 6959SOL     OW25723   2.252   2.419   1.276
 6959SOL    HW125724   2.286   2.372   1.352
 6959SOL    HW225725   2.260   2.357   1.204
 6960SOL     OW25726   2.613   3.434   0.688
 6960SOL    HW125727   2.567   3.448   0.605
 6960SOL    HW225728   2.597   3.342   0.709
 6961SOL     OW25729   3.314   2.033   1.229
 6961SOL    HW125730   3.267   1.954   1.200
 6961SOL    HW225731   3.245   2.098   1.241
 6962SOL     OW25732   2.874   1.924   1.115
 6962SOL    HW125733   2.789   1.891   1.086
 6962SOL    HW225734   2.932   1.848   1.111
 6963SOL     OW25735   2.696   3.177   0.312
 6963SOL    HW125736   2.634   3.107   0.333
 6963SOL    HW225737   2.760   3.175   0.383
 6964SOL     OW25738   2.432   3.479   1.141
 6964SOL    HW125739   2.349   3.452   1.179
 6964SOL    HW225740   2.422   3.462   1.047
 6965SOL     OW25741   3.233   1.900   0.182
 6965SOL    HW125742   3.283   1.825   0.149
 6965SOL    HW225743   3.143   1.870   0.183
 6966SOL     OW25744   3.151   2.297   0.683
 6966SOL    HW125745   3.099   2.377   0.680
 6966SOL    HW225746   3.140   2.263   0.772
 6967SOL     OW25747   3.447   2.154   0.944
 6967SOL    HW125748   3.440   2.059   0.929
 6967SOL    HW225749   3.435   2.192   0.857
 6968SOL     OW25750   1.955   2.886   0.322
 6968SOL    HW125751   2.043   2.866   0.353
 6968SOL    HW225752   1.900   2.816   0.358
 6969SOL     OW25753   2.800   3.541   0.394
 6969SOL    HW125754   2.723   3.501   0.354
 6969SOL    HW225755   2.766   3.613   0.446
 6970SOL     OW25756   2.085   2.465   1.977
 6970SOL    HW125757   1.998   2.453   2.016
 6970SOL    HW225758   2.073   2.444   1.885
 6971SOL     OW25759   2.098   2.175   2.844
 6971SOL    HW125760   2.134   2.132   2.922
 6971SOL    HW225761   2.005   2.150   2.844
 6972SOL     OW25762   1.866   2.252   2.497
 6972SOL    HW125763   1.783   2.278   2.536
 6972SOL    HW225764   1.848   2.166   2.458
 6973SOL     OW25765   2.479   3.219   2.986
 6973SOL    HW125766   2.438   3.137   3.013
 6973SOL    HW225767   2.461   3.280   3.057
 6974SOL     OW25768   3.453   3.424   2.598
 6974SOL    HW125769   3.406   3.374   2.664
 6974SOL    HW225770   3.412   3.400   2.515
 6975SOL     OW25771   2.990   2.522   2.542
 6975SOL    HW125772   2.989   2.568   2.626
 6975SOL    HW225773   2.908   2.472   2.542
 6976SOL     OW25774   3.560   2.478   2.117
 6976SOL    HW125775   3.572   2.457   2.025
 6976SOL    HW225776   3.523   2.399   2.155
 6977SOL     OW25777   2.649   2.994   2.941
 6977SOL    HW125778   2.594   2.919   2.963
 6977SOL    HW225779   2.594   3.070   2.961
 6978SOL     OW25780   2.748   2.675   3.756
 6978SOL    HW125781   2.658   2.704   3.766
 6978SOL    HW225782   2.773   2.701   3.667
 6979SOL     OW25783   2.523   2.835   2.486
 6979SOL    HW125784   2.580   2.833   2.563
 6979SOL    HW225785   2.445   2.882   2.516
 6980SOL     OW25786   2.542   2.984   3.594
 6980SOL    HW125787   2.471   3.048   3.598
 6980SOL    HW225788   2.529   2.940   3.510
 6981SOL     OW25789   2.137   3.275   2.904
 6981SOL    HW125790   2.089   3.193   2.905
 6981SOL    HW225791   2.116   3.314   2.819
 6982SOL     OW25792   3.319   3.372   3.273
 6982SOL    HW125793   3.248   3.424   3.310
 6982SOL    HW225794   3.282   3.284   3.264
 6983SOL     OW25795   2.356   2.250   3.408
 6983SOL    HW125796   2.407   2.175   3.378
 6983SOL    HW225797   2.266   2.217   3.411
 6984SOL     OW25798   3.451   2.297   2.597
 6984SOL    HW125799   3.359   2.300   2.571
 6984SOL    HW225800   3.456   2.221   2.656
 6985SOL     OW25801   2.095   3.600   2.226
 6985SOL    HW125802   2.134   3.620   2.311
 6985SOL    HW225803   2.010   3.644   2.228
 6986SOL     OW25804   3.058   3.186   3.518
 6986SOL    HW125805   3.143   3.142   3.518
 6986SOL    HW225806   3.012   3.149   3.443
 6987SOL     OW25807   2.033   3.245   2.407
 6987SOL    HW125808   1.940   3.262   2.417
 6987SOL    HW225809   2.049   3.167   2.460
 6988SOL     OW25810   2.473   3.660   3.343
 6988SOL    HW125811   2.386   3.638   3.376
 6988SOL    HW225812   2.465   3.750   3.311
 6989SOL     OW25813   2.512   2.831   1.958
 6989SOL    HW125814   2.529   2.911   1.907
 6989SOL    HW225815   2.522   2.859   2.049
 6990SOL     OW25816   3.379   2.087   3.254
 6990SOL    HW125817   3.404   2.044   3.172
 6990SOL    HW225818   3.284   2.093   3.250
 6991SOL     OW25819   2.010   2.488   2.417
 6991SOL    HW125820   1.960   2.410   2.438
 6991SOL    HW225821   2.030   2.528   2.502
 6992SOL     OW25822   3.699   3.606   2.173
 6992SOL    HW125823   3.773   3.591   2.232
 6992SOL    HW225824   3.710   3.696   2.143
 6993SOL     OW25825   1.846   3.441   1.962
 6993SOL    HW125826   1.784   3.370   1.980
 6993SOL    HW225827   1.831   3.463   1.870
 6994SOL     OW25828   3.643   2.809   2.517
 6994SOL    HW125829   3.673   2.733   2.565
 6994SOL    HW225830   3.579   2.774   2.454
 6995SOL     OW25831   3.513   3.014   2.244
 6995SOL    HW125832   3.595   2.965   2.238
 6995SOL    HW225833   3.536   3.092   2.294
 6996SOL     OW25834   1.953   2.614   3.438
 6996SOL    HW125835   2.035   2.660   3.421
 6996SOL    HW225836   1.885   2.673   3.405
 6997SOL     OW25837   2.445   3.241   2.588
 6997SOL    HW125838   2.404   3.155   2.593
 6997SOL    HW225839   2.432   3.269   2.497
 6998SOL     OW25840   3.220   3.119   3.240
 6998SOL    HW125841   3.192   3.049   3.182
 6998SOL    HW225842   3.246   3.075   3.321
 6999SOL     OW25843   2.700   1.936   2.391
 6999SOL    HW125844   2.717   2.025   2.361
 6999SOL    HW225845   2.605   1.928   2.390
 7000SOL     OW25846   3.422   2.865   2.024
 7000SOL    HW125847   3.363   2.789   2.029
 7000SOL    HW225848   3.436   2.890   2.115
 7001SOL     OW25849   3.096   3.697   3.503
 7001SOL    HW125850   3.089   3.755   3.428
 7001SOL    HW225851   3.083   3.609   3.468
 7002SOL     OW25852   2.159   2.110   3.718
 7002SOL    HW125853   2.178   2.181   3.657
 7002SOL    HW225854   2.065   2.118   3.736
 7003SOL     OW25855   3.293   3.276   2.784
 7003SOL    HW125856   3.231   3.279   2.857
 7003SOL    HW225857   3.289   3.185   2.753
 7004SOL     OW25858   3.478   3.678   2.424
 7004SOL    HW125859   3.470   3.619   2.349
 7004SOL    HW225860   3.477   3.621   2.500
 7005SOL     OW25861   2.458   2.556   2.121
 7005SOL    HW125862   2.442   2.641   2.081
 7005SOL    HW225863   2.394   2.551   2.193
 7006SOL     OW25864   3.160   2.218   2.825
 7006SOL    HW125865   3.069   2.192   2.836
 7006SOL    HW225866   3.210   2.146   2.862
 7007SOL     OW25867   3.430   3.544   2.184
 7007SOL    HW125868   3.525   3.548   2.173
 7007SOL    HW225869   3.396   3.527   2.096
 7008SOL     OW25870   2.661   2.468   3.321
 7008SOL    HW125871   2.631   2.421   3.399
 7008SOL    HW225872   2.628   2.416   3.247
 7009SOL     OW25873   3.282   2.407   3.533
 7009SOL    HW125874   3.262   2.420   3.626
 7009SOL    HW225875   3.305   2.315   3.526
 7010SOL     OW25876   2.820   2.754   3.500
 7010SOL    HW125877   2.874   2.702   3.440
 7010SOL    HW225878   2.735   2.759   3.457
 7011SOL     OW25879   2.855   2.273   3.068
 7011SOL    HW125880   2.762   2.291   3.086
 7011SOL    HW225881   2.856   2.235   2.980
 7012SOL     OW25882   2.930   2.562   2.271
 7012SOL    HW125883   2.936   2.548   2.365
 7012SOL    HW225884   2.847   2.521   2.246
 7013SOL     OW25885   2.088   2.598   2.657
 7013SOL    HW125886   2.175   2.583   2.693
 7013SOL    HW225887   2.028   2.566   2.725
 7014SOL     OW25888   1.989   3.742   3.406
 7014SOL    HW125889   1.967   3.737   3.499
 7014SOL    HW225890   1.958   3.660   3.369
 7015SOL     OW25891   2.705   2.174   2.042
 7015SOL    HW125892   2.738   2.175   1.953
 7015SOL    HW225893   2.647   2.098   2.045
 7016SOL     OW25894   3.611   2.459   3.730
 7016SOL    HW125895   3.579   2.529   3.674
 7016SOL    HW225896   3.609   2.381   3.675
 7017SOL     OW25897   3.313   3.082   2.434
 7017SOL    HW125898   3.357   3.027   2.368
 7017SOL    HW225899   3.232   3.111   2.391
 7018SOL     OW25900   2.423   2.018   2.754
 7018SOL    HW125901   2.420   2.058   2.841
 7018SOL    HW225902   2.427   2.092   2.694
 7019SOL     OW25903   2.874   3.375   2.342
 7019SOL    HW125904   2.844   3.442   2.281
 7019SOL    HW225905   2.809   3.375   2.412
 7020SOL     OW25906   2.225   3.754   2.741
 7020SOL    HW125907   2.147   3.703   2.763
 7020SOL    HW225908   2.298   3.705   2.779
 7021SOL     OW25909   3.674   2.982   2.734
 7021SOL    HW125910   3.653   2.918   2.666
 7021SOL    HW225911   3.607   2.968   2.801
 7022SOL     OW25912   3.068   3.435   3.383
 7022SOL    HW125913   3.064   3.364   3.447
 7022SOL    HW225914   3.003   3.411   3.316
 7023SOL     OW25915   2.155   2.776   2.107
 7023SOL    HW125916   2.182   2.766   2.016
 7023SOL    HW225917   2.099   2.700   2.124
 7024SOL     OW25918   3.358   2.579   2.639
 7024SOL    HW125919   3.335   2.546   2.726
 7024SOL    HW225920   3.403   2.506   2.597
 7025SOL     OW25921   2.323   3.163   3.597
 7025SOL    HW125922   2.298   3.170   3.505
 7025SOL    HW225923   2.240   3.146   3.643
 7026SOL     OW25924   2.982   3.638   2.028
 7026SOL    HW125925   2.912   3.636   2.092
 7026SOL    HW225926   3.019   3.550   2.029
 7027SOL     OW25927   2.088   2.167   3.425
 7027SOL    HW125928   2.038   2.217   3.361
 7027SOL    HW225929   2.047   2.081   3.425
 7028SOL     OW25930   3.515   3.251   1.950
 7028SOL    HW125931   3.472   3.332   1.922
 7028SOL    HW225932   3.451   3.183   1.932
 7029SOL     OW25933   3.277   1.963   2.327
 7029SOL    HW125934   3.277   1.915   2.245
 7029SOL    HW225935   3.353   1.930   2.375
 7030SOL     OW25936   2.135   3.668   3.043
 7030SOL    HW125937   2.135   3.575   3.065
 7030SOL    HW225938   2.045   3.695   3.059
 7031SOL     OW25939   2.732   3.569   2.724
 7031SOL    HW125940   2.732   3.494   2.783
 7031SOL    HW225941   2.703   3.532   2.640
 7032SOL     OW25942   2.281   2.505   2.329
 7032SOL    HW125943   2.291   2.413   2.353
 7032SOL    HW225944   2.188   2.524   2.345
 7033SOL     OW25945   3.342   2.143   3.576
 7033SOL    HW125946   3.337   2.127   3.670
 7033SOL    HW225947   3.307   2.063   3.537
 7034SOL     OW25948   2.532   1.951   2.010
 7034SOL    HW125949   2.559   1.861   2.024
 7034SOL    HW225950   2.484   1.950   1.927
 7035SOL     OW25951   2.653   2.086   3.650
 7035SOL    HW125952   2.739   2.045   3.644
 7035SOL    HW225953   2.600   2.024   3.700
 7036SOL     OW25954   2.741   3.444   3.089
 7036SOL    HW125955   2.726   3.408   3.001
 7036SOL    HW225956   2.794   3.377   3.133
 7037SOL     OW25957   3.167   2.477   3.291
 7037SOL    HW125958   3.214   2.453   3.371
 7037SOL    HW225959   3.198   2.566   3.271
 7038SOL     OW25960   2.708   3.322   2.846
 7038SOL    HW125961   2.761   3.255   2.804
 7038SOL    HW225962   2.625   3.278   2.867
 7039SOL     OW25963   2.837   2.370   2.751
 7039SOL    HW125964   2.777   2.372   2.677
 7039SOL    HW225965   2.847   2.277   2.772
 7040SOL     OW25966   2.430   1.919   2.351
 7040SOL    HW125967   2.389   1.839   2.316
 7040SOL    HW225968   2.402   1.988   2.291
 7041SOL     OW25969   3.312   3.073   1.885
 7041SOL    HW125970   3.347   2.995   1.928
 7041SOL    HW225971   3.227   3.087   1.927
 7042SOL     OW25972   2.157   1.891   2.065
 7042SOL    HW125973   2.202   1.966   2.025
 7042SOL    HW225974   2.227   1.841   2.108
 7043SOL     OW25975   2.805   2.180   2.304
 7043SOL    HW125976   2.781   2.177   2.211
 7043SOL    HW225977   2.900   2.169   2.304
 7044SOL     OW25978   2.908   2.585   3.299
 7044SOL    HW125979   2.829   2.531   3.302
 7044SOL    HW225980   2.980   2.523   3.286
 7045SOL     OW25981   3.180   3.540   2.715
 7045SOL    HW125982   3.153   3.572   2.629
 7045SOL    HW225983   3.193   3.446   2.702
 7046SOL     OW25984   2.301   3.008   2.538
 7046SOL    HW125985   2.213   2.999   2.572
 7046SOL    HW225986   2.290   3.001   2.443
 7047SOL     OW25987   3.112   3.662   2.472
 7047SOL    HW125988   3.147   3.737   2.424
 7047SOL    HW225989   3.026   3.692   2.503
 7048SOL     OW25990   2.897   2.376   1.870
 7048SOL    HW125991   2.810   2.412   1.885
 7048SOL    HW225992   2.936   2.368   1.957
 7049SOL     OW25993   1.971   2.384   3.286
 7049SOL    HW125994   2.027   2.413   3.214
 7049SOL    HW225995   1.955   2.464   3.337
 7050SOL     OW25996   2.423   2.092   3.027
 7050SOL    HW125997   2.456   2.008   3.059
 7050SOL    HW225998   2.330   2.091   3.050
 7051SOL     OW25999   2.753   2.395   2.482
 7051SOL    HW126000   2.670   2.441   2.466
 7051SOL    HW226001   2.751   2.321   2.422
 7052SOL     OW26002   2.885   1.945   2.598
 7052SOL    HW126003   2.823   1.948   2.524
 7052SOL    HW226004   2.858   1.869   2.649
 7053SOL     OW26005   3.283   3.008   2.699
 7053SOL    HW126006   3.230   2.928   2.696
 7053SOL    HW226007   3.297   3.030   2.607
 7054SOL     OW26008   3.300   2.463   2.885
 7054SOL    HW126009   3.249   2.383   2.871
 7054SOL    HW226010   3.361   2.441   2.956
 7055SOL     OW26011   3.786   2.623   2.178
 7055SOL    HW126012   3.806   2.590   2.266
 7055SOL    HW226013   3.703   2.581   2.155
 7056SOL     OW26014   2.343   3.376   2.027
 7056SOL    HW126015   2.285   3.323   2.083
 7056SOL    HW226016   2.300   3.376   1.942
 7057SOL     OW26017   3.584   3.191   2.442
 7057SOL    HW126018   3.655   3.146   2.487
 7057SOL    HW226019   3.504   3.155   2.481
 7058SOL     OW26020   3.250   2.391   1.935
 7058SOL    HW126021   3.171   2.386   1.989
 7058SOL    HW226022   3.295   2.308   1.950
 7059SOL     OW26023   2.371   2.113   2.163
 7059SOL    HW126024   2.430   2.061   2.108
 7059SOL    HW226025   2.349   2.190   2.110
 7060SOL     OW26026   3.565   3.073   3.406
 7060SOL    HW126027   3.611   2.989   3.401
 7060SOL    HW226028   3.631   3.135   3.437
 7061SOL     OW26029   2.886   3.250   3.227
 7061SOL    HW126030   2.802   3.224   3.265
 7061SOL    HW226031   2.903   3.183   3.160
 7062SOL     OW26032   3.521   3.501   3.568
 7062SOL    HW126033   3.523   3.556   3.490
 7062SOL    HW226034   3.575   3.424   3.544
 7063SOL     OW26035   2.912   3.093   2.986
 7063SOL    HW126036   2.830   3.045   2.998
 7063SOL    HW226037   2.915   3.111   2.892
 7064SOL     OW26038   3.462   2.952   2.913
 7064SOL    HW126039   3.414   2.989   2.987
 7064SOL    HW226040   3.398   2.951   2.841
 7065SOL     OW26041   2.778   1.937   3.271
 7065SOL    HW126042   2.781   1.931   3.175
 7065SOL    HW226043   2.864   1.972   3.295
 7066SOL     OW26044   2.824   3.002   3.621
 7066SOL    HW126045   2.729   3.009   3.626
 7066SOL    HW226046   2.839   2.923   3.569
 7067SOL     OW26047   2.580   2.902   2.222
 7067SOL    HW126048   2.551   2.873   2.308
 7067SOL    HW226049   2.664   2.857   2.208
 7068SOL     OW26050   3.098   2.230   3.186
 7068SOL    HW126051   3.129   2.319   3.206
 7068SOL    HW226052   3.016   2.243   3.138
 7069SOL     OW26053   1.948   3.508   3.259
 7069SOL    HW126054   1.901   3.528   3.178
 7069SOL    HW226055   2.027   3.462   3.230
 7070SOL     OW26056   2.215   2.983   2.281
 7070SOL    HW126057   2.121   2.995   2.297
 7070SOL    HW226058   2.219   2.908   2.222
 7071SOL     OW26059   2.513   2.461   2.721
 7071SOL    HW126060   2.516   2.481   2.628
 7071SOL    HW226061   2.441   2.513   2.755
 7072SOL     OW26062   3.106   3.231   2.291
 7072SOL    HW126063   3.168   3.297   2.325
 7072SOL    HW226064   3.020   3.268   2.311
 7073SOL     OW26065   3.126   3.281   3.008
 7073SOL    HW126066   3.161   3.246   3.089
 7073SOL    HW226067   3.047   3.229   2.991
 7074SOL     OW26068   3.474   2.688   2.301
 7074SOL    HW126069   3.379   2.687   2.303
 7074SOL    HW226070   3.498   2.614   2.245
 7075SOL     OW26071   2.180   3.401   3.143
 7075SOL    HW126072   2.161   3.350   3.064
 7075SOL    HW226073   2.275   3.409   3.145
 7076SOL     OW26074   2.221   2.703   3.403
 7076SOL    HW126075   2.271   2.769   3.354
 7076SOL    HW226076   2.235   2.622   3.353
 7077SOL     OW26077   3.481   2.630   3.541
 7077SOL    HW126078   3.400   2.680   3.547
 7077SOL    HW226079   3.454   2.544   3.508
 7078SOL     OW26080   2.907   1.992   3.659
 7078SOL    HW126081   2.956   2.068   3.630
 7078SOL    HW226082   2.953   1.917   3.621
 7079SOL     OW26083   2.318   1.904   3.635
 7079SOL    HW126084   2.276   1.847   3.570
 7079SOL    HW226085   2.257   1.977   3.646
 7080SOL     OW26086   3.186   2.716   2.903
 7080SOL    HW126087   3.102   2.692   2.862
 7080SOL    HW226088   3.236   2.634   2.903
 7081SOL     OW26089   3.044   2.365   2.113
 7081SOL    HW126090   3.062   2.294   2.176
 7081SOL    HW226091   3.003   2.433   2.166
 7082SOL     OW26092   2.158   2.039   3.081
 7082SOL    HW126093   2.071   2.060   3.116
 7082SOL    HW226094   2.156   1.945   3.068
 7083SOL     OW26095   1.920   3.134   3.122
 7083SOL    HW126096   1.959   3.089   3.196
 7083SOL    HW226097   1.832   3.158   3.151
 7084SOL     OW26098   2.629   2.553   2.953
 7084SOL    HW126099   2.621   2.502   2.872
 7084SOL    HW226100   2.564   2.623   2.943
 7085SOL     OW26101   3.632   2.814   3.698
 7085SOL    HW126102   3.587   2.751   3.642
 7085SOL    HW226103   3.578   2.820   3.776
 7086SOL     OW26104   3.456   2.240   2.224
 7086SOL    HW126105   3.521   2.183   2.265
 7086SOL    HW226106   3.382   2.240   2.284
 7087SOL     OW26107   2.945   2.617   2.809
 7087SOL    HW126108   2.898   2.657   2.881
 7087SOL    HW226109   2.907   2.530   2.800
 7088SOL     OW26110   2.796   3.372   3.522
 7088SOL    HW126111   2.797   3.443   3.458
 7088SOL    HW226112   2.704   3.352   3.535
 7089SOL     OW26113   3.721   3.319   3.471
 7089SOL    HW126114   3.740   3.377   3.398
 7089SOL    HW226115   3.802   3.318   3.523
 7090SOL     OW26116   2.219   2.764   3.677
 7090SOL    HW126117   2.311   2.761   3.702
 7090SOL    HW226118   2.217   2.734   3.587
 7091SOL     OW26119   3.353   2.134   1.986
 7091SOL    HW126120   3.318   2.048   2.008
 7091SOL    HW226121   3.396   2.164   2.066
 7092SOL     OW26122   3.220   2.677   1.948
 7092SOL    HW126123   3.228   2.581   1.946
 7092SOL    HW226124   3.228   2.703   1.856
 7093SOL     OW26125   2.907   3.167   2.717
 7093SOL    HW126126   2.915   3.075   2.694
 7093SOL    HW226127   2.925   3.214   2.635
 7094SOL     OW26128   2.246   2.409   2.979
 7094SOL    HW126129   2.188   2.353   2.929
 7094SOL    HW226130   2.269   2.480   2.919
 7095SOL     OW26131   3.001   2.241   3.566
 7095SOL    HW126132   2.937   2.295   3.612
 7095SOL    HW226133   3.065   2.304   3.533
 7096SOL     OW26134   3.022   2.040   3.363
 7096SOL    HW126135   3.007   2.108   3.429
 7096SOL    HW226136   3.054   2.088   3.287
 7097SOL     OW26137   1.906   3.139   2.035
 7097SOL    HW126138   1.816   3.163   2.014
 7097SOL    HW226139   1.898   3.054   2.078
 7098SOL     OW26140   1.984   3.619   2.767
 7098SOL    HW126141   1.938   3.548   2.722
 7098SOL    HW226142   1.960   3.607   2.859
 7099SOL     OW26143   2.405   3.418   2.797
 7099SOL    HW126144   2.394   3.354   2.868
 7099SOL    HW226145   2.411   3.365   2.718
 7100SOL     OW26146   2.834   2.705   3.055
 7100SOL    HW126147   2.864   2.661   3.134
 7100SOL    HW226148   2.759   2.653   3.026
 7101SOL     OW26149   2.043   2.387   3.608
 7101SOL    HW126150   2.051   2.323   3.537
 7101SOL    HW226151   2.000   2.462   3.568
 7102SOL     OW26152   3.248   2.777   3.540
 7102SOL    HW126153   3.256   2.872   3.533
 7102SOL    HW226154   3.227   2.748   3.451
 7103SOL     OW26155   2.714   2.445   2.143
 7103SOL    HW126156   2.699   2.353   2.118
 7103SOL    HW226157   2.627   2.485   2.140
 7104SOL     OW26158   3.523   2.468   3.076
 7104SOL    HW126159   3.540   2.397   3.139
 7104SOL    HW226160   3.591   2.458   3.010
 7105SOL     OW26161   2.096   3.414   3.611
 7105SOL    HW126162   2.045   3.453   3.682
 7105SOL    HW226163   2.104   3.322   3.635
 7106SOL     OW26164   2.579   2.316   3.103
 7106SOL    HW126165   2.519   2.247   3.075
 7106SOL    HW226166   2.562   2.389   3.044
 7107SOL     OW26167   2.745   3.576   3.332
 7107SOL    HW126168   2.749   3.537   3.244
 7107SOL    HW226169   2.655   3.609   3.339
 7108SOL     OW26170   2.326   2.341   2.004
 7108SOL    HW126171   2.384   2.407   2.043
 7108SOL    HW226172   2.241   2.384   1.999
 7109SOL     OW26173   2.020   2.978   3.325
 7109SOL    HW126174   2.012   2.963   3.419
 7109SOL    HW226175   1.988   2.897   3.285
 7110SOL     OW26176   3.137   2.925   3.068
 7110SOL    HW126177   3.155   2.855   3.006
 7110SOL    HW226178   3.051   2.958   3.042
 7111SOL     OW26179   3.190   2.682   2.239
 7111SOL    HW126180   3.106   2.642   2.263
 7111SOL    HW226181   3.191   2.681   2.144
 7112SOL     OW26182   3.664   3.574   3.062
 7112SOL    HW126183   3.715   3.599   2.985
 7112SOL    HW226184   3.601   3.511   3.029
 7113SOL     OW26185   3.089   3.575   2.974
 7113SOL    HW126186   3.117   3.568   2.882
 7113SOL    HW226187   3.096   3.485   3.007
 7114SOL     OW26188   1.963   3.041   2.869
 7114SOL    HW126189   1.941   3.068   2.958
 7114SOL    HW226190   1.882   3.053   2.820
 7115SOL     OW26191   2.507   3.612   3.623
 7115SOL    HW126192   2.432   3.669   3.637
 7115SOL    HW226193   2.526   3.620   3.529
 7116SOL     OW26194   3.631   2.067   2.347
 7116SOL    HW126195   3.695   2.039   2.281
 7116SOL    HW226196   3.597   1.985   2.383
 7117SOL     OW26197   3.263   3.441   2.382
 7117SOL    HW126198   3.313   3.473   2.307
 7117SOL    HW226199   3.206   3.515   2.405
 7118SOL     OW26200   1.980   3.699   3.681
 7118SOL    HW126201   1.932   3.624   3.715
 7118SOL    HW226202   2.028   3.733   3.756
 7119SOL     OW26203   3.177   2.778   2.561
 7119SOL    HW126204   3.237   2.711   2.594
 7119SOL    HW226205   3.162   2.753   2.470
 7120SOL     OW26206   2.631   3.152   3.271
 7120SOL    HW126207   2.537   3.138   3.260
 7120SOL    HW226208   2.671   3.068   3.248
 7121SOL     OW26209   2.564   3.538   1.998
 7121SOL    HW126210   2.557   3.554   1.904
 7121SOL    HW226211   2.485   3.489   2.021
 7122SOL     OW26212   3.551   3.656   3.334
 7122SOL    HW126213   3.551   3.608   3.251
 7122SOL    HW226214   3.498   3.734   3.317
 7123SOL     OW26215   3.720   2.178   2.844
 7123SOL    HW126216   3.734   2.084   2.827
 7123SOL    HW226217   3.628   2.192   2.819
 7124SOL     OW26218   2.102   2.126   2.571
 7124SOL    HW126219   2.029   2.183   2.545
 7124SOL    HW226220   2.118   2.148   2.662
 7125SOL     OW26221   3.076   3.411   1.893
 7125SOL    HW126222   3.078   3.339   1.957
 7125SOL    HW226223   3.053   3.368   1.811
 7126SOL     OW26224   2.768   2.919   3.219
 7126SOL    HW126225   2.796   2.863   3.147
 7126SOL    HW226226   2.702   2.867   3.266
 7127SOL     OW26227   2.819   2.791   2.152
 7127SOL    HW126228   2.817   2.771   2.058
 7127SOL    HW226229   2.860   2.714   2.191
 7128SOL     OW26230   3.335   3.527   1.919
 7128SOL    HW126231   3.252   3.484   1.898
 7128SOL    HW226232   3.385   3.523   1.838
 7129SOL     OW26233   2.223   3.186   3.346
 7129SOL    HW126234   2.194   3.249   3.280
 7129SOL    HW226235   2.177   3.106   3.324
 7130SOL     OW26236   3.531   3.229   3.175
 7130SOL    HW126237   3.531   3.159   3.240
 7130SOL    HW226238   3.464   3.291   3.206
 7131SOL     OW26239   2.937   2.908   2.651
 7131SOL    HW126240   2.861   2.852   2.664
 7131SOL    HW226241   3.007   2.849   2.623
 7132SOL     OW26242   2.893   2.106   2.829
 7132SOL    HW126243   2.895   2.059   2.746
 7132SOL    HW226244   2.860   2.041   2.892
 7133SOL     OW26245   2.469   3.343   2.324
 7133SOL    HW126246   2.521   3.278   2.276
 7133SOL    HW226247   2.389   3.352   2.272
 7134SOL     OW26248   3.600   2.248   3.253
 7134SOL    HW126249   3.661   2.190   3.207
 7134SOL    HW226250   3.518   2.198   3.256
 7135SOL     OW26251   2.109   3.287   2.150
 7135SOL    HW126252   2.047   3.225   2.111
 7135SOL    HW226253   2.096   3.279   2.244
 7136SOL     OW26254   1.986   2.912   3.595
 7136SOL    HW126255   1.901   2.875   3.616
 7136SOL    HW226256   2.049   2.847   3.627
 7137SOL     OW26257   2.546   2.040   3.384
 7137SOL    HW126258   2.623   2.014   3.333
 7137SOL    HW226259   2.580   2.055   3.473
 7138SOL     OW26260   1.918   2.178   1.929
 7138SOL    HW126261   1.868   2.181   1.847
 7138SOL    HW226262   1.890   2.255   1.977
 7139SOL     OW26263   3.255   2.745   3.262
 7139SOL    HW126264   3.196   2.789   3.201
 7139SOL    HW226265   3.339   2.743   3.217
 7140SOL     OW26266   1.912   1.987   2.138
 7140SOL    HW126267   1.896   2.052   2.070
 7140SOL    HW226268   2.000   1.953   2.118
 7141SOL     OW26269   3.076   3.164   2.020
 7141SOL    HW126270   3.041   3.076   2.005
 7141SOL    HW226271   3.083   3.172   2.115
 7142SOL     OW26272   2.592   2.752   3.354
 7142SOL    HW126273   2.511   2.790   3.318
 7142SOL    HW226274   2.588   2.660   3.329
 7143SOL     OW26275   3.412   3.653   2.816
 7143SOL    HW126276   3.331   3.620   2.776
 7143SOL    HW226277   3.452   3.576   2.856
 7144SOL     OW26278   2.580   2.336   3.558
 7144SOL    HW126279   2.493   2.330   3.520
 7144SOL    HW226280   2.600   2.248   3.588
 7145SOL     OW26281   3.308   3.054   3.510
 7145SOL    HW126282   3.322   3.055   3.604
 7145SOL    HW226283   3.396   3.062   3.473
 7146SOL     OW26284   2.230   3.613   3.465
 7146SOL    HW126285   2.154   3.656   3.426
 7146SOL    HW226286   2.194   3.536   3.510
 7147SOL     OW26287   3.500   2.741   3.126
 7147SOL    HW126288   3.506   2.647   3.105
 7147SOL    HW226289   3.500   2.785   3.041
 7148SOL     OW26290   3.098   2.183   2.318
 7148SOL    HW126291   3.147   2.101   2.317
 7148SOL    HW226292   3.118   2.223   2.402
 7149SOL     OW26293   2.523   2.554   2.458
 7149SOL    HW126294   2.525   2.649   2.464
 7149SOL    HW226295   2.439   2.534   2.416
 7150SOL     OW26296   3.587   2.258   3.537
 7150SOL    HW126297   3.606   2.260   3.443
 7150SOL    HW226298   3.504   2.211   3.543
 7151SOL     OW26299   3.640   2.792   3.365
 7151SOL    HW126300   3.588   2.734   3.420
 7151SOL    HW226301   3.603   2.782   3.277
 7152SOL     OW26302   2.668   3.272   1.958
 7152SOL    HW126303   2.664   3.229   2.043
 7152SOL    HW226304   2.637   3.361   1.974
 7153SOL     OW26305   2.492   3.671   2.844
 7153SOL    HW126306   2.453   3.584   2.845
 7153SOL    HW226307   2.575   3.661   2.798
 7154SOL     OW26308   2.668   2.826   2.722
 7154SOL    HW126309   2.601   2.770   2.761
 7154SOL    HW226310   2.680   2.897   2.785
 7155SOL     OW26311   3.032   2.909   1.930
 7155SOL    HW126312   2.945   2.876   1.908
 7155SOL    HW226313   3.085   2.830   1.944
 7156SOL     OW26314   3.728   3.431   2.688
 7156SOL    HW126315   3.640   3.421   2.651
 7156SOL    HW226316   3.745   3.349   2.733
 7157SOL     OW26317   2.066   3.153   3.696
 7157SOL    HW126318   2.037   3.073   3.652
 7157SOL    HW226319   2.007   3.163   3.770
 7158SOL     OW26320   2.018   3.003   2.554
 7158SOL    HW126321   1.963   3.035   2.625
 7158SOL    HW226322   1.964   2.936   2.511
 7159SOL     OW26323   2.538   3.335   3.594
 7159SOL    HW126324   2.461   3.279   3.579
 7159SOL    HW226325   2.501   3.423   3.604
 7160SOL     OW26326   3.748   2.067   3.097
 7160SOL    HW126327   3.734   1.974   3.078
 7160SOL    HW226328   3.727   2.111   3.015
 7161SOL     OW26329   2.301   2.244   2.401
 7161SOL    HW126330   2.321   2.187   2.328
 7161SOL    HW226331   2.239   2.194   2.455
 7162SOL     OW26332   3.494   3.391   2.945
 7162SOL    HW126333   3.430   3.351   2.887
 7162SOL    HW226334   3.510   3.325   3.012
 7163SOL     OW26335   2.263   2.475   3.249
 7163SOL    HW126336   2.300   2.397   3.291
 7163SOL    HW226337   2.261   2.453   3.156
 7164SOL     OW26338   2.659   3.406   2.514
 7164SOL    HW126339   2.597   3.412   2.441
 7164SOL    HW226340   2.618   3.343   2.574
 7165SOL     OW26341   2.792   1.896   2.995
 7165SOL    HW126342   2.720   1.844   2.960
 7165SOL    HW226343   2.868   1.837   2.990
 7166SOL     OW26344   2.648   3.165   2.210
 7166SOL    HW126345   2.611   3.077   2.208
 7166SOL    HW226346   2.731   3.156   2.258
 7167SOL     OW26347   2.462   3.441   3.157
 7167SOL    HW126348   2.456   3.511   3.222
 7167SOL    HW226349   2.554   3.438   3.133
 7168SOL     OW26350   3.261   1.873   2.022
 7168SOL    HW126351   3.250   1.835   1.934
 7168SOL    HW226352   3.182   1.846   2.069
 7169SOL     OW26353   3.175   2.311   2.556
 7169SOL    HW126354   3.120   2.388   2.551
 7169SOL    HW226355   3.161   2.277   2.645
 7170SOL     OW26356   3.474   2.078   2.771
 7170SOL    HW126357   3.436   2.057   2.856
 7170SOL    HW226358   3.547   2.017   2.762
 7171SOL     OW26359   1.926   2.908   2.186
 7171SOL    HW126360   2.010   2.889   2.145
 7171SOL    HW226361   1.890   2.822   2.209
 7172SOL     OW26362   2.765   3.591   2.192
 7172SOL    HW126363   2.690   3.568   2.137
 7172SOL    HW226364   2.730   3.649   2.258
 7173SOL     OW26365   2.099   2.407   3.878
 7173SOL    HW126366   2.010   2.418   3.911
 7173SOL    HW226367   2.090   2.409   3.783
 7174SOL     OW26368   2.067   2.189   4.733
 7174SOL    HW126369   2.108   2.150   4.811
 7174SOL    HW226370   1.986   2.138   4.722
 7175SOL     OW26371   1.862   2.255   4.378
 7175SOL    HW126372   1.779   2.276   4.420
 7175SOL    HW226373   1.847   2.169   4.338
 7176SOL     OW26374   3.368   3.252   4.397
 7176SOL    HW126375   3.352   3.272   4.489
 7176SOL    HW226376   3.328   3.324   4.348
 7177SOL     OW26377   2.976   2.507   4.399
 7177SOL    HW126378   2.992   2.583   4.455
 7177SOL    HW226379   2.913   2.454   4.449
 7178SOL     OW26380   3.560   2.480   4.001
 7178SOL    HW126381   3.570   2.469   3.907
 7178SOL    HW226382   3.529   2.394   4.032
 7179SOL     OW26383   2.699   3.058   4.797
 7179SOL    HW126384   2.627   3.089   4.852
 7179SOL    HW226385   2.684   3.102   4.713
 7180SOL     OW26386   2.783   2.765   5.659
 7180SOL    HW126387   2.688   2.772   5.668
 7180SOL    HW226388   2.795   2.722   5.574
 7181SOL     OW26389   2.555   2.918   4.389
 7181SOL    HW126390   2.627   2.928   4.451
 7181SOL    HW226391   2.489   2.981   4.418
 7182SOL     OW26392   2.601   3.050   5.542
 7182SOL    HW126393   2.627   3.131   5.586
 7182SOL    HW226394   2.514   3.068   5.507
 7183SOL     OW26395   3.339   3.346   5.155
 7183SOL    HW126396   3.268   3.406   5.173
 7183SOL    HW226397   3.297   3.260   5.148
 7184SOL     OW26398   2.287   2.236   5.185
 7184SOL    HW126399   2.350   2.170   5.213
 7184SOL    HW226400   2.202   2.197   5.206
 7185SOL     OW26401   3.440   2.309   4.437
 7185SOL    HW126402   3.350   2.299   4.408
 7185SOL    HW226403   3.451   2.246   4.507
 7186SOL     OW26404   2.104   3.590   4.192
 7186SOL    HW126405   2.121   3.661   4.254
 7186SOL    HW226406   2.166   3.605   4.121
 7187SOL     OW26407   2.984   3.258   5.404
 7187SOL    HW126408   3.004   3.250   5.497
 7187SOL    HW226409   2.935   3.178   5.383
 7188SOL     OW26410   2.143   3.315   4.264
 7188SOL    HW126411   2.110   3.405   4.262
 7188SOL    HW226412   2.096   3.273   4.336
 7189SOL     OW26413   2.375   3.712   5.130
 7189SOL    HW126414   2.329   3.664   5.199
 7189SOL    HW226415   2.326   3.691   5.050
 7190SOL     OW26416   2.507   2.812   3.811
 7190SOL    HW126417   2.515   2.876   3.740
 7190SOL    HW226418   2.524   2.863   3.890
 7191SOL     OW26419   3.449   2.009   5.194
 7191SOL    HW126420   3.378   2.030   5.133
 7191SOL    HW226421   3.410   2.020   5.281
 7192SOL     OW26422   2.016   2.486   4.286
 7192SOL    HW126423   1.956   2.412   4.296
 7192SOL    HW226424   1.995   2.544   4.358
 7193SOL     OW26425   3.703   3.601   4.041
 7193SOL    HW126426   3.777   3.587   4.100
 7193SOL    HW226427   3.708   3.694   4.019
 7194SOL     OW26428   1.915   3.469   3.828
 7194SOL    HW126429   1.883   3.380   3.838
 7194SOL    HW226430   1.892   3.512   3.910
 7195SOL     OW26431   3.568   2.788   4.384
 7195SOL    HW126432   3.640   2.730   4.408
 7195SOL    HW226433   3.512   2.735   4.327
 7196SOL     OW26434   3.607   3.022   4.257
 7196SOL    HW126435   3.652   3.013   4.173
 7196SOL    HW226436   3.611   2.934   4.296
 7197SOL     OW26437   1.980   2.634   5.303
 7197SOL    HW126438   1.931   2.606   5.381
 7197SOL    HW226439   1.932   2.711   5.272
 7198SOL     OW26440   3.208   3.111   5.108
 7198SOL    HW126441   3.200   3.043   5.041
 7198SOL    HW226442   3.225   3.064   5.189
 7199SOL     OW26443   2.674   1.918   4.253
 7199SOL    HW126444   2.580   1.936   4.249
 7199SOL    HW226445   2.680   1.827   4.282
 7200SOL     OW26446   2.055   2.857   4.984
 7200SOL    HW126447   2.117   2.785   4.993
 7200SOL    HW226448   1.970   2.815   4.974
 7201SOL     OW26449   3.445   2.816   3.909
 7201SOL    HW126450   3.374   2.763   3.873
 7201SOL    HW226451   3.457   2.783   3.998
 7202SOL     OW26452   3.169   3.742   5.291
 7202SOL    HW126453   3.108   3.793   5.238
 7202SOL    HW226454   3.140   3.652   5.282
 7203SOL     OW26455   3.320   3.236   4.673
 7203SOL    HW126456   3.254   3.259   4.739
 7203SOL    HW226457   3.296   3.149   4.643
 7204SOL     OW26458   3.476   3.702   4.271
 7204SOL    HW126459   3.471   3.635   4.203
 7204SOL    HW226460   3.464   3.653   4.353
 7205SOL     OW26461   2.447   2.588   4.009
 7205SOL    HW126462   2.434   2.660   3.947
 7205SOL    HW226463   2.384   2.605   4.079
 7206SOL     OW26464   3.145   2.244   4.659
 7206SOL    HW126465   3.053   2.218   4.664
 7206SOL    HW226466   3.191   2.175   4.707
 7207SOL     OW26467   3.432   3.541   4.047
 7207SOL    HW126468   3.526   3.544   4.034
 7207SOL    HW226469   3.396   3.526   3.959
 7208SOL     OW26470   2.642   2.483   5.185
 7208SOL    HW126471   2.613   2.453   5.271
 7208SOL    HW226472   2.623   2.410   5.127
 7209SOL     OW26473   3.254   2.318   5.417
 7209SOL    HW126474   3.242   2.344   5.508
 7209SOL    HW226475   3.277   2.225   5.420
 7210SOL     OW26476   2.857   2.789   5.289
 7210SOL    HW126477   2.882   2.701   5.260
 7210SOL    HW226478   2.788   2.815   5.227
 7211SOL     OW26479   2.892   2.240   4.925
 7211SOL    HW126480   2.805   2.264   4.956
 7211SOL    HW226481   2.879   2.215   4.834
 7212SOL     OW26482   2.917   2.567   4.138
 7212SOL    HW126483   2.928   2.548   4.231
 7212SOL    HW226484   2.833   2.527   4.115
 7213SOL     OW26485   1.949   2.664   4.480
 7213SOL    HW126486   1.969   2.729   4.548
 7213SOL    HW226487   1.865   2.692   4.444
 7214SOL     OW26488   1.978   3.724   5.305
 7214SOL    HW126489   1.965   3.690   5.393
 7214SOL    HW226490   1.903   3.691   5.255
 7215SOL     OW26491   2.772   2.202   3.904
 7215SOL    HW126492   2.815   2.270   3.853
 7215SOL    HW226493   2.729   2.147   3.838
 7216SOL     OW26494   3.217   3.013   4.173
 7216SOL    HW126495   3.177   2.936   4.134
 7216SOL    HW226496   3.157   3.085   4.152
 7217SOL     OW26497   2.395   1.946   4.722
 7217SOL    HW126498   2.415   1.996   4.800
 7217SOL    HW226499   2.391   2.011   4.652
 7218SOL     OW26500   2.837   3.373   4.229
 7218SOL    HW126501   2.817   3.434   4.159
 7218SOL    HW226502   2.767   3.386   4.293
 7219SOL     OW26503   2.243   3.529   4.674
 7219SOL    HW126504   2.254   3.436   4.653
 7219SOL    HW226505   2.333   3.564   4.677
 7220SOL     OW26506   3.644   2.936   4.621
 7220SOL    HW126507   3.600   2.892   4.548
 7220SOL    HW226508   3.578   2.942   4.689
 7221SOL     OW26509   3.089   3.448   5.220
 7221SOL    HW126510   3.066   3.389   5.292
 7221SOL    HW226511   3.023   3.430   5.153
 7222SOL     OW26512   2.147   2.803   3.953
 7222SOL    HW126513   2.161   2.786   3.860
 7222SOL    HW226514   2.085   2.736   3.981
 7223SOL     OW26515   3.336   2.580   4.456
 7223SOL    HW126516   3.318   2.556   4.547
 7223SOL    HW226517   3.383   2.504   4.421
 7224SOL     OW26518   2.351   3.119   5.454
 7224SOL    HW126519   2.316   3.121   5.365
 7224SOL    HW226520   2.274   3.120   5.511
 7225SOL     OW26521   2.973   3.706   3.892
 7225SOL    HW126522   2.909   3.656   3.942
 7225SOL    HW226523   2.923   3.747   3.821
 7226SOL     OW26524   2.051   2.095   5.216
 7226SOL    HW126525   1.972   2.147   5.232
 7226SOL    HW226526   2.030   2.008   5.251
 7227SOL     OW26527   3.488   3.248   3.846
 7227SOL    HW126528   3.441   3.327   3.820
 7227SOL    HW226529   3.427   3.176   3.827
 7228SOL     OW26530   2.343   3.661   4.038
 7228SOL    HW126531   2.381   3.675   4.124
 7228SOL    HW226532   2.394   3.590   3.999
 7229SOL     OW26533   3.251   1.985   4.189
 7229SOL    HW126534   3.249   1.961   4.096
 7229SOL    HW226535   3.332   1.945   4.222
 7230SOL     OW26536   2.194   3.638   4.933
 7230SOL    HW126537   2.139   3.577   4.983
 7230SOL    HW226538   2.203   3.597   4.847
 7231SOL     OW26539   2.852   3.491   4.558
 7231SOL    HW126540   2.841   3.466   4.650
 7231SOL    HW226541   2.768   3.473   4.518
 7232SOL     OW26542   2.287   2.546   4.239
 7232SOL    HW126543   2.316   2.457   4.259
 7232SOL    HW226544   2.192   2.543   4.245
 7233SOL     OW26545   3.332   2.049   5.445
 7233SOL    HW126546   3.381   2.056   5.527
 7233SOL    HW226547   3.270   1.978   5.460
 7234SOL     OW26548   2.510   1.924   3.821
 7234SOL    HW126549   2.534   1.832   3.835
 7234SOL    HW226550   2.440   1.920   3.756
 7235SOL     OW26551   2.500   2.142   5.481
 7235SOL    HW126552   2.523   2.077   5.547
 7235SOL    HW226553   2.411   2.170   5.505
 7236SOL     OW26554   2.819   3.414   4.827
 7236SOL    HW126555   2.727   3.387   4.818
 7236SOL    HW226556   2.850   3.370   4.906
 7237SOL     OW26557   3.240   2.419   5.157
 7237SOL    HW126558   3.248   2.389   5.247
 7237SOL    HW226559   3.211   2.510   5.165
 7238SOL     OW26560   2.655   3.181   4.559
 7238SOL    HW126561   2.659   3.258   4.502
 7238SOL    HW226562   2.563   3.154   4.556
 7239SOL     OW26563   2.819   2.375   4.580
 7239SOL    HW126564   2.725   2.391   4.571
 7239SOL    HW226565   2.825   2.283   4.607
 7240SOL     OW26566   2.398   1.937   4.221
 7240SOL    HW126567   2.311   1.946   4.258
 7240SOL    HW226568   2.408   2.014   4.164
 7241SOL     OW26569   3.316   3.032   3.787
 7241SOL    HW126570   3.366   2.964   3.831
 7241SOL    HW226571   3.225   3.003   3.795
 7242SOL     OW26572   2.127   1.904   3.908
 7242SOL    HW126573   2.167   1.966   3.848
 7242SOL    HW226574   2.199   1.846   3.934
 7243SOL     OW26575   2.906   2.534   5.189
 7243SOL    HW126576   2.812   2.518   5.187
 7243SOL    HW226577   2.941   2.461   5.241
 7244SOL     OW26578   3.141   3.492   4.560
 7244SOL    HW126579   3.052   3.522   4.539
 7244SOL    HW226580   3.134   3.397   4.560
 7245SOL     OW26581   3.144   3.793   4.407
 7245SOL    HW126582   3.160   3.798   4.312
 7245SOL    HW226583   3.050   3.776   4.413
 7246SOL     OW26584   2.809   2.402   3.710
 7246SOL    HW126585   2.733   2.386   3.654
 7246SOL    HW226586   2.802   2.495   3.733
 7247SOL     OW26587   1.967   2.403   5.158
 7247SOL    HW126588   1.980   2.424   5.065
 7247SOL    HW226589   1.980   2.486   5.203
 7248SOL     OW26590   2.427   2.102   4.947
 7248SOL    HW126591   2.456   2.080   5.035
 7248SOL    HW226592   2.332   2.106   4.953
 7249SOL     OW26593   2.639   2.260   4.254
 7249SOL    HW126594   2.648   2.343   4.208
 7249SOL    HW226595   2.547   2.257   4.281
 7250SOL     OW26596   2.879   1.936   4.452
 7250SOL    HW126597   2.808   1.942   4.389
 7250SOL    HW226598   2.860   1.858   4.504
 7251SOL     OW26599   3.269   2.982   4.544
 7251SOL    HW126600   3.274   2.897   4.589
 7251SOL    HW226601   3.176   2.992   4.523
 7252SOL     OW26602   3.290   2.483   4.712
 7252SOL    HW126603   3.235   2.405   4.697
 7252SOL    HW226604   3.341   2.462   4.790
 7253SOL     OW26605   3.768   2.655   4.063
 7253SOL    HW126606   3.804   2.609   4.138
 7253SOL    HW226607   3.695   2.601   4.033
 7254SOL     OW26608   2.383   3.300   3.854
 7254SOL    HW126609   2.308   3.280   3.911
 7254SOL    HW226610   2.364   3.253   3.773
 7255SOL     OW26611   3.245   2.406   3.809
 7255SOL    HW126612   3.184   2.400   3.883
 7255SOL    HW226613   3.292   2.323   3.809
 7256SOL     OW26614   2.507   2.107   4.025
 7256SOL    HW126615   2.499   2.050   3.948
 7256SOL    HW226616   2.448   2.181   4.006
 7257SOL     OW26617   3.608   3.102   5.300
 7257SOL    HW126618   3.673   3.045   5.341
 7257SOL    HW226619   3.638   3.191   5.321
 7258SOL     OW26620   2.898   3.281   5.066
 7258SOL    HW126621   2.810   3.259   5.097
 7258SOL    HW226622   2.948   3.201   5.077
 7259SOL     OW26623   3.495   3.503   5.413
 7259SOL    HW126624   3.450   3.496   5.329
 7259SOL    HW226625   3.573   3.448   5.404
 7260SOL     OW26626   2.973   3.101   4.801
 7260SOL    HW126627   2.882   3.077   4.815
 7260SOL    HW226628   2.976   3.130   4.709
 7261SOL     OW26629   3.468   2.966   4.841
 7261SOL    HW126630   3.493   3.029   4.909
 7261SOL    HW226631   3.373   2.962   4.846
 7262SOL     OW26632   2.761   1.970   5.087
 7262SOL    HW126633   2.789   1.964   4.995
 7262SOL    HW226634   2.835   2.012   5.132
 7263SOL     OW26635   2.859   3.011   5.444
 7263SOL    HW126636   2.768   3.018   5.473
 7263SOL    HW226637   2.861   2.934   5.388
 7264SOL     OW26638   2.572   2.931   4.058
 7264SOL    HW126639   2.486   2.925   4.098
 7264SOL    HW226640   2.628   2.877   4.113
 7265SOL     OW26641   2.273   2.680   4.986
 7265SOL    HW126642   2.325   2.694   5.065
 7265SOL    HW226643   2.266   2.585   4.978
 7266SOL     OW26644   3.140   2.192   5.028
 7266SOL    HW126645   3.173   2.273   5.066
 7266SOL    HW226646   3.055   2.215   4.990
 7267SOL     OW26647   2.016   3.460   5.048
 7267SOL    HW126648   1.941   3.491   4.998
 7267SOL    HW226649   2.015   3.365   5.039
 7268SOL     OW26650   2.315   2.918   4.140
 7268SOL    HW126651   2.265   2.992   4.175
 7268SOL    HW226652   2.255   2.876   4.078
 7269SOL     OW26653   2.554   2.448   4.567
 7269SOL    HW126654   2.541   2.514   4.499
 7269SOL    HW226655   2.467   2.413   4.584
 7270SOL     OW26656   3.071   3.252   4.140
 7270SOL    HW126657   3.133   3.315   4.177
 7270SOL    HW226658   2.986   3.281   4.172
 7271SOL     OW26659   3.153   3.300   4.887
 7271SOL    HW126660   3.171   3.257   4.970
 7271SOL    HW226661   3.071   3.260   4.857
 7272SOL     OW26662   3.437   2.676   4.156
 7272SOL    HW126663   3.342   2.663   4.149
 7272SOL    HW226664   3.474   2.601   4.111
 7273SOL     OW26665   2.321   2.575   5.402
 7273SOL    HW126666   2.352   2.623   5.326
 7273SOL    HW226667   2.235   2.541   5.376
 7274SOL     OW26668   3.504   2.558   5.458
 7274SOL    HW126669   3.421   2.606   5.455
 7274SOL    HW226670   3.550   2.584   5.379
 7275SOL     OW26671   2.973   1.848   5.424
 7275SOL    HW126672   2.964   1.936   5.386
 7275SOL    HW226673   2.972   1.863   5.518
 7276SOL     OW26674   2.340   1.855   5.537
 7276SOL    HW126675   2.291   1.824   5.462
 7276SOL    HW226676   2.274   1.870   5.605
 7277SOL     OW26677   2.496   2.770   4.846
 7277SOL    HW126678   2.472   2.849   4.797
 7277SOL    HW226679   2.415   2.741   4.887
 7278SOL     OW26680   3.188   2.739   4.707
 7278SOL    HW126681   3.098   2.716   4.684
 7278SOL    HW226682   3.233   2.655   4.714
 7279SOL     OW26683   3.092   2.374   4.033
 7279SOL    HW126684   3.059   2.292   4.069
 7279SOL    HW226685   3.030   2.441   4.064
 7280SOL     OW26686   2.153   2.050   4.957
 7280SOL    HW126687   2.107   2.070   5.039
 7280SOL    HW226688   2.138   1.956   4.944
 7281SOL     OW26689   1.944   3.195   5.039
 7281SOL    HW126690   1.852   3.173   5.054
 7281SOL    HW226691   1.992   3.136   5.097
 7282SOL     OW26692   2.629   2.532   4.819
 7282SOL    HW126693   2.603   2.502   4.732
 7282SOL    HW226694   2.579   2.613   4.831
 7283SOL     OW26695   3.611   2.811   5.554
 7283SOL    HW126696   3.590   2.718   5.543
 7283SOL    HW226697   3.556   2.840   5.626
 7284SOL     OW26698   2.131   1.957   4.347
 7284SOL    HW126699   2.141   2.043   4.389
 7284SOL    HW226700   2.041   1.956   4.315
 7285SOL     OW26701   3.459   2.236   4.098
 7285SOL    HW126702   3.522   2.176   4.138
 7285SOL    HW226703   3.381   2.230   4.153
 7286SOL     OW26704   2.943   2.612   4.669
 7286SOL    HW126705   2.919   2.629   4.760
 7286SOL    HW226706   2.900   2.529   4.648
 7287SOL     OW26707   2.856   3.506   5.421
 7287SOL    HW126708   2.793   3.521   5.349
 7287SOL    HW226709   2.880   3.413   5.413
 7288SOL     OW26710   3.725   3.354   5.341
 7288SOL    HW126711   3.754   3.393   5.259
 7288SOL    HW226712   3.801   3.361   5.399
 7289SOL     OW26713   2.258   2.753   5.610
 7289SOL    HW126714   2.346   2.787   5.624
 7289SOL    HW226715   2.269   2.683   5.546
 7290SOL     OW26716   3.351   2.154   3.853
 7290SOL    HW126717   3.303   2.075   3.878
 7290SOL    HW226718   3.400   2.178   3.932
 7291SOL     OW26719   3.229   2.682   3.813
 7291SOL    HW126720   3.231   2.587   3.806
 7291SOL    HW226721   3.209   2.712   3.724
 7292SOL     OW26722   3.021   3.237   4.548
 7292SOL    HW126723   3.007   3.151   4.506
 7292SOL    HW226724   2.944   3.288   4.524
 7293SOL     OW26725   2.173   2.744   4.687
 7293SOL    HW126726   2.181   2.662   4.638
 7293SOL    HW226727   2.143   2.717   4.774
 7294SOL     OW26728   2.298   2.366   4.620
 7294SOL    HW126729   2.251   2.348   4.701
 7294SOL    HW226730   2.243   2.330   4.551
 7295SOL     OW26731   2.980   2.330   5.363
 7295SOL    HW126732   2.937   2.349   5.446
 7295SOL    HW226733   3.073   2.330   5.384
 7296SOL     OW26734   2.974   2.083   5.234
 7296SOL    HW126735   2.958   2.168   5.276
 7296SOL    HW226736   3.036   2.103   5.164
 7297SOL     OW26737   1.888   3.180   3.909
 7297SOL    HW126738   1.799   3.202   3.883
 7297SOL    HW226739   1.880   3.099   3.958
 7298SOL     OW26740   2.012   3.645   4.571
 7298SOL    HW126741   1.942   3.580   4.565
 7298SOL    HW226742   2.083   3.599   4.616
 7299SOL     OW26743   2.528   3.485   4.728
 7299SOL    HW126744   2.520   3.473   4.823
 7299SOL    HW226745   2.480   3.411   4.691
 7300SOL     OW26746   2.866   2.631   4.929
 7300SOL    HW126747   2.885   2.598   5.017
 7300SOL    HW226748   2.780   2.595   4.908
 7301SOL     OW26749   1.986   2.424   4.877
 7301SOL    HW126750   1.995   2.351   4.816
 7301SOL    HW226751   1.899   2.460   4.859
 7302SOL     OW26752   2.019   2.373   5.459
 7302SOL    HW126753   2.004   2.330   5.375
 7302SOL    HW226754   1.939   2.424   5.474
 7303SOL     OW26755   3.296   2.741   5.411
 7303SOL    HW126756   3.307   2.836   5.402
 7303SOL    HW226757   3.257   2.714   5.328
 7304SOL     OW26758   2.680   2.453   4.057
 7304SOL    HW126759   2.681   2.393   3.982
 7304SOL    HW226760   2.602   2.507   4.044
 7305SOL     OW26761   3.424   2.449   4.955
 7305SOL    HW126762   3.353   2.438   5.019
 7305SOL    HW226763   3.489   2.384   4.980
 7306SOL     OW26764   2.170   3.405   5.521
 7306SOL    HW126765   2.096   3.464   5.536
 7306SOL    HW226766   2.130   3.318   5.512
 7307SOL     OW26767   2.625   2.302   4.973
 7307SOL    HW126768   2.551   2.245   4.954
 7307SOL    HW226769   2.611   2.379   4.918
 7308SOL     OW26770   2.691   3.554   5.209
 7308SOL    HW126771   2.632   3.507   5.150
 7308SOL    HW226772   2.705   3.638   5.167
 7309SOL     OW26773   2.332   2.327   4.001
 7309SOL    HW126774   2.373   2.413   3.993
 7309SOL    HW226775   2.248   2.336   3.956
 7310SOL     OW26776   2.090   3.020   5.209
 7310SOL    HW126777   2.045   2.983   5.285
 7310SOL    HW226778   2.076   2.956   5.139
 7311SOL     OW26779   3.190   2.950   4.881
 7311SOL    HW126780   3.185   2.870   4.828
 7311SOL    HW226781   3.111   2.999   4.857
 7312SOL     OW26782   3.155   2.718   4.087
 7312SOL    HW126783   3.070   2.673   4.097
 7312SOL    HW226784   3.173   2.714   3.993
 7313SOL     OW26785   3.667   3.547   4.916
 7313SOL    HW126786   3.718   3.574   4.839
 7313SOL    HW226787   3.614   3.474   4.885
 7314SOL     OW26788   3.208   3.572   4.818
 7314SOL    HW126789   3.171   3.548   4.733
 7314SOL    HW226790   3.193   3.495   4.873
 7315SOL     OW26791   2.480   3.562   5.452
 7315SOL    HW126792   2.386   3.568   5.432
 7315SOL    HW226793   2.510   3.487   5.400
 7316SOL     OW26794   3.632   2.056   4.217
 7316SOL    HW126795   3.688   2.032   4.142
 7316SOL    HW226796   3.591   1.973   4.243
 7317SOL     OW26797   3.253   3.452   4.241
 7317SOL    HW126798   3.308   3.477   4.166
 7317SOL    HW226799   3.193   3.526   4.252
 7318SOL     OW26800   2.006   3.636   5.568
 7318SOL    HW126801   1.937   3.585   5.612
 7318SOL    HW226802   2.035   3.699   5.634
 7319SOL     OW26803   3.152   2.768   4.365
 7319SOL    HW126804   3.211   2.702   4.400
 7319SOL    HW226805   3.146   2.748   4.271
 7320SOL     OW26806   2.654   3.172   5.143
 7320SOL    HW126807   2.607   3.218   5.212
 7320SOL    HW226808   2.591   3.166   5.071
 7321SOL     OW26809   2.538   3.526   3.887
 7321SOL    HW126810   2.544   3.549   3.794
 7321SOL    HW226811   2.493   3.442   3.888
 7322SOL     OW26812   3.633   3.732   5.127
 7322SOL    HW126813   3.624   3.661   5.064
 7322SOL    HW226814   3.545   3.767   5.137
 7323SOL     OW26815   3.714   2.018   4.720
 7323SOL    HW126816   3.723   1.931   4.683
 7323SOL    HW226817   3.629   2.050   4.687
 7324SOL     OW26818   2.122   2.211   4.460
 7324SOL    HW126819   2.038   2.239   4.423
 7324SOL    HW226820   2.103   2.198   4.553
 7325SOL     OW26821   2.668   2.889   5.112
 7325SOL    HW126822   2.657   2.877   5.017
 7325SOL    HW226823   2.662   2.983   5.126
 7326SOL     OW26824   2.876   2.790   3.973
 7326SOL    HW126825   2.821   2.757   3.901
 7326SOL    HW226826   2.873   2.721   4.039
 7327SOL     OW26827   3.347   3.509   3.779
 7327SOL    HW126828   3.266   3.477   3.739
 7327SOL    HW226829   3.409   3.514   3.707
 7328SOL     OW26830   2.274   3.226   5.189
 7328SOL    HW126831   2.277   3.254   5.098
 7328SOL    HW226832   2.202   3.163   5.192
 7329SOL     OW26833   3.536   3.178   5.041
 7329SOL    HW126834   3.557   3.132   5.121
 7329SOL    HW226835   3.471   3.244   5.067
 7330SOL     OW26836   2.998   2.969   4.485
 7330SOL    HW126837   2.912   2.940   4.516
 7330SOL    HW226838   3.032   2.894   4.436
 7331SOL     OW26839   2.895   2.112   4.667
 7331SOL    HW126840   2.892   2.068   4.582
 7331SOL    HW226841   2.886   2.042   4.731
 7332SOL     OW26842   2.458   3.391   4.203
 7332SOL    HW126843   2.497   3.327   4.143
 7332SOL    HW226844   2.370   3.358   4.219
 7333SOL     OW26845   3.598   2.266   5.070
 7333SOL    HW126846   3.683   2.303   5.044
 7333SOL    HW226847   3.611   2.171   5.065
 7334SOL     OW26848   2.158   3.240   4.001
 7334SOL    HW126849   2.067   3.230   3.971
 7334SOL    HW226850   2.150   3.264   4.093
 7335SOL     OW26851   2.011   2.901   5.478
 7335SOL    HW126852   1.921   2.873   5.497
 7335SOL    HW226853   2.066   2.830   5.511
 7336SOL     OW26854   2.515   2.045   5.208
 7336SOL    HW126855   2.603   2.027   5.176
 7336SOL    HW226856   2.528   2.078   5.297
 7337SOL     OW26857   1.891   2.168   3.761
 7337SOL    HW126858   1.822   2.154   3.696
 7337SOL    HW226859   1.909   2.262   3.757
 7338SOL     OW26860   3.228   2.701   5.146
 7338SOL    HW126861   3.154   2.728   5.091
 7338SOL    HW226862   3.305   2.718   5.092
 7339SOL     OW26863   1.887   2.002   3.994
 7339SOL    HW126864   1.861   2.065   3.928
 7339SOL    HW226865   1.975   1.974   3.968
 7340SOL     OW26866   3.031   3.218   3.860
 7340SOL    HW126867   3.045   3.123   3.856
 7340SOL    HW226868   3.039   3.240   3.953
 7341SOL     OW26869   2.466   2.698   5.185
 7341SOL    HW126870   2.522   2.774   5.173
 7341SOL    HW226871   2.526   2.623   5.181
 7342SOL     OW26872   3.363   3.665   4.591
 7342SOL    HW126873   3.299   3.607   4.550
 7342SOL    HW226874   3.370   3.634   4.681
 7343SOL     OW26875   2.556   2.418   5.434
 7343SOL    HW126876   2.474   2.465   5.446
 7343SOL    HW226877   2.536   2.328   5.463
 7344SOL     OW26878   3.343   3.017   5.349
 7344SOL    HW126879   3.323   3.047   5.437
 7344SOL    HW226880   3.432   3.049   5.333
 7345SOL     OW26881   2.224   3.597   5.330
 7345SOL    HW126882   2.139   3.631   5.302
 7345SOL    HW226883   2.203   3.515   5.374
 7346SOL     OW26884   3.472   2.720   5.006
 7346SOL    HW126885   3.467   2.631   4.971
 7346SOL    HW226886   3.485   2.776   4.929
 7347SOL     OW26887   3.003   2.147   4.187
 7347SOL    HW126888   3.068   2.080   4.167
 7347SOL    HW226889   3.038   2.193   4.263
 7348SOL     OW26890   2.504   2.645   4.383
 7348SOL    HW126891   2.515   2.740   4.377
 7348SOL    HW226892   2.425   2.626   4.332
 7349SOL     OW26893   3.575   2.246   5.349
 7349SOL    HW126894   3.567   2.272   5.257
 7349SOL    HW226895   3.591   2.152   5.346
 7350SOL     OW26896   3.610   2.713   5.249
 7350SOL    HW126897   3.578   2.793   5.290
 7350SOL    HW226898   3.568   2.711   5.164
 7351SOL     OW26899   2.698   3.245   3.807
 7351SOL    HW126900   2.663   3.235   3.895
 7351SOL    HW226901   2.622   3.270   3.754
 7352SOL     OW26902   2.614   3.741   4.674
 7352SOL    HW126903   2.539   3.799   4.662
 7352SOL    HW226904   2.576   3.653   4.679
 7353SOL     OW26905   2.760   2.872   4.590
 7353SOL    HW126906   2.739   2.780   4.602
 7353SOL    HW226907   2.732   2.914   4.672
 7354SOL     OW26908   3.041   2.949   3.807
 7354SOL    HW126909   2.979   2.952   3.734
 7354SOL    HW226910   3.001   2.888   3.869
 7355SOL     OW26911   3.717   3.398   4.585
 7355SOL    HW126912   3.732   3.329   4.521
 7355SOL    HW226913   3.656   3.360   4.648
 7356SOL     OW26914   2.101   3.140   5.573
 7356SOL    HW126915   2.067   3.063   5.528
 7356SOL    HW226916   2.044   3.150   5.649
 7357SOL     OW26917   1.996   3.112   4.420
 7357SOL    HW126918   1.912   3.103   4.465
 7357SOL    HW226919   1.980   3.079   4.332
 7358SOL     OW26920   2.493   3.315   5.325
 7358SOL    HW126921   2.464   3.258   5.396
 7358SOL    HW226922   2.422   3.311   5.260
 7359SOL     OW26923   3.722   2.008   5.069
 7359SOL    HW126924   3.773   1.950   5.127
 7359SOL    HW226925   3.634   1.971   5.070
 7360SOL     OW26926   2.349   2.270   4.274
 7360SOL    HW126927   2.325   2.275   4.181
 7360SOL    HW226928   2.268   2.248   4.319
 7361SOL     OW26929   3.546   3.326   4.798
 7361SOL    HW126930   3.468   3.302   4.749
 7361SOL    HW226931   3.547   3.266   4.873
 7362SOL     OW26932   2.251   2.410   4.972
 7362SOL    HW126933   2.263   2.352   5.048
 7362SOL    HW226934   2.158   2.402   4.950
 7363SOL     OW26935   2.613   3.421   4.428
 7363SOL    HW126936   2.563   3.422   4.346
 7363SOL    HW226937   2.546   3.412   4.496
 7364SOL     OW26938   3.255   2.044   4.820
 7364SOL    HW126939   3.227   1.953   4.828
 7364SOL    HW226940   3.220   2.087   4.897
 7365SOL     OW26941   2.879   1.880   4.820
 7365SOL    HW126942   2.831   1.821   4.762
 7365SOL    HW226943   2.961   1.834   4.839
 7366SOL     OW26944   2.623   3.202   4.073
 7366SOL    HW126945   2.593   3.111   4.060
 7366SOL    HW226946   2.696   3.195   4.134
 7367SOL     OW26947   2.540   3.430   5.002
 7367SOL    HW126948   2.446   3.447   5.009
 7367SOL    HW226949   2.545   3.336   4.982
 7368SOL     OW26950   3.224   1.921   3.924
 7368SOL    HW126951   3.267   1.854   3.871
 7368SOL    HW226952   3.135   1.890   3.935
 7369SOL     OW26953   3.163   2.300   4.388
 7369SOL    HW126954   3.110   2.379   4.378
 7369SOL    HW226955   3.152   2.277   4.480
 7370SOL     OW26956   3.455   2.087   4.623
 7370SOL    HW126957   3.396   2.077   4.698
 7370SOL    HW226958   3.430   2.015   4.564
 7371SOL     OW26959   1.915   2.935   4.056
 7371SOL    HW126960   2.002   2.932   4.017
 7371SOL    HW226961   1.890   2.844   4.069
 7372SOL     OW26962   2.767   3.578   4.047
 7372SOL    HW126963   2.690   3.552   3.997
 7372SOL    HW226964   2.734   3.642   4.111
 7373SOL     OW26965   2.108   2.454   5.708
 7373SOL    HW126966   2.032   2.493   5.751
 7373SOL    HW226967   2.077   2.426   5.622
 7374SOL     OW26968   1.889   2.274   6.227
 7374SOL    HW126969   1.800   2.299   6.251
 7374SOL    HW226970   1.902   2.188   6.268
 7375SOL     OW26971   2.435   3.145   6.745
 7375SOL    HW126972   2.422   3.052   6.725
 7375SOL    HW226973   2.354   3.187   6.719
 7376SOL     OW26974   3.469   3.354   6.340
 7376SOL    HW126975   3.414   3.313   6.407
 7376SOL    HW226976   3.408   3.382   6.272
 7377SOL     OW26977   2.981   2.635   6.289
 7377SOL    HW126978   3.046   2.566   6.286
 7377SOL    HW226979   2.898   2.590   6.306
 7378SOL     OW26980   3.677   2.463   5.750
 7378SOL    HW126981   3.730   2.394   5.710
 7378SOL    HW226982   3.627   2.419   5.819
 7379SOL     OW26983   2.685   3.011   6.716
 7379SOL    HW126984   2.636   2.941   6.673
 7379SOL    HW226985   2.622   3.082   6.728
 7380SOL     OW26986   2.747   2.753   7.566
 7380SOL    HW126987   2.665   2.790   7.532
 7380SOL    HW226988   2.766   2.680   7.506
 7381SOL     OW26989   2.596   2.887   6.243
 7381SOL    HW126990   2.613   2.836   6.322
 7381SOL    HW226991   2.517   2.937   6.264
 7382SOL     OW26992   2.566   3.025   7.277
 7382SOL    HW126993   2.539   3.117   7.276
 7382SOL    HW226994   2.508   2.983   7.213
 7383SOL     OW26995   2.196   3.278   6.662
 7383SOL    HW126996   2.136   3.205   6.651
 7383SOL    HW226997   2.163   3.346   6.602
 7384SOL     OW26998   3.314   3.416   6.982
 7384SOL    HW126999   3.229   3.437   7.021
 7384SOL    HW227000   3.314   3.321   6.975
 7385SOL     OW27001   2.273   2.256   7.135
 7385SOL    HW127002   2.297   2.206   7.057
 7385SOL    HW227003   2.216   2.196   7.184
 7386SOL     OW27004   3.513   2.386   6.352
 7386SOL    HW127005   3.460   2.343   6.285
 7386SOL    HW227006   3.509   2.327   6.428
 7387SOL     OW27007   2.176   3.642   5.992
 7387SOL    HW127008   2.168   3.664   6.085
 7387SOL    HW227009   2.089   3.611   5.967
 7388SOL     OW27010   3.059   3.192   7.250
 7388SOL    HW127011   3.145   3.150   7.248
 7388SOL    HW227012   2.997   3.121   7.235
 7389SOL     OW27013   2.070   3.301   6.172
 7389SOL    HW127014   1.990   3.353   6.178
 7389SOL    HW227015   2.046   3.215   6.208
 7390SOL     OW27016   2.218   2.958   6.519
 7390SOL    HW127017   2.191   2.866   6.518
 7390SOL    HW227018   2.140   3.005   6.549
 7391SOL     OW27019   2.435   3.679   7.023
 7391SOL    HW127020   2.343   3.685   6.995
 7391SOL    HW227021   2.460   3.769   7.043
 7392SOL     OW27022   2.513   2.840   5.700
 7392SOL    HW127023   2.536   2.911   5.640
 7392SOL    HW227024   2.518   2.878   5.787
 7393SOL     OW27025   3.586   1.893   7.126
 7393SOL    HW127026   3.540   1.947   7.063
 7393SOL    HW227027   3.526   1.820   7.144
 7394SOL     OW27028   2.010   2.495   6.115
 7394SOL    HW127029   1.972   2.413   6.145
 7394SOL    HW227030   1.996   2.556   6.187
 7395SOL     OW27031   3.718   3.614   5.886
 7395SOL    HW127032   3.786   3.604   5.953
 7395SOL    HW227033   3.714   3.708   5.869
 7396SOL     OW27034   1.835   3.489   5.718
 7396SOL    HW127035   1.814   3.399   5.692
 7396SOL    HW227036   1.751   3.525   5.746
 7397SOL     OW27037   3.674   2.827   6.266
 7397SOL    HW127038   3.704   2.742   6.296
 7397SOL    HW227039   3.608   2.807   6.199
 7398SOL     OW27040   3.527   2.943   6.004
 7398SOL    HW127041   3.617   2.945   5.972
 7398SOL    HW227042   3.520   3.021   6.059
 7399SOL     OW27043   2.037   2.672   7.228
 7399SOL    HW127044   2.034   2.584   7.263
 7399SOL    HW227045   2.002   2.664   7.139
 7400SOL     OW27046   2.482   3.270   6.334
 7400SOL    HW127047   2.448   3.180   6.338
 7400SOL    HW227048   2.450   3.304   6.251
 7401SOL     OW27049   3.264   3.136   6.955
 7401SOL    HW127050   3.236   3.065   6.898
 7401SOL    HW227051   3.256   3.100   7.044
 7402SOL     OW27052   2.695   1.896   6.095
 7402SOL    HW127053   2.728   1.983   6.075
 7402SOL    HW227054   2.600   1.907   6.104
 7403SOL     OW27055   2.076   2.767   6.885
 7403SOL    HW127056   2.164   2.736   6.864
 7403SOL    HW227057   2.027   2.688   6.909
 7404SOL     OW27058   3.432   2.864   5.757
 7404SOL    HW127059   3.370   2.790   5.756
 7404SOL    HW227060   3.452   2.877   5.849
 7405SOL     OW27061   3.100   3.705   7.196
 7405SOL    HW127062   3.067   3.753   7.121
 7405SOL    HW227063   3.091   3.613   7.172
 7406SOL     OW27064   3.316   3.224   6.535
 7406SOL    HW127065   3.241   3.244   6.591
 7406SOL    HW227066   3.298   3.136   6.502
 7407SOL     OW27067   3.500   3.678   6.138
 7407SOL    HW127068   3.488   3.628   6.058
 7407SOL    HW227069   3.473   3.618   6.208
 7408SOL     OW27070   2.453   2.575   5.855
 7408SOL    HW127071   2.420   2.653   5.811
 7408SOL    HW227072   2.390   2.558   5.925
 7409SOL     OW27073   3.186   2.231   6.626
 7409SOL    HW127074   3.113   2.179   6.591
 7409SOL    HW227075   3.246   2.166   6.663
 7410SOL     OW27076   3.446   3.552   5.902
 7410SOL    HW127077   3.539   3.553   5.883
 7410SOL    HW227078   3.404   3.536   5.817
 7411SOL     OW27079   2.648   2.461   7.037
 7411SOL    HW127080   2.643   2.425   7.125
 7411SOL    HW227081   2.601   2.398   6.982
 7412SOL     OW27082   3.167   2.311   7.271
 7412SOL    HW127083   3.169   2.347   7.359
 7412SOL    HW227084   3.225   2.235   7.275
 7413SOL     OW27085   2.870   2.793   7.172
 7413SOL    HW127086   2.869   2.697   7.174
 7413SOL    HW227087   2.820   2.817   7.095
 7414SOL     OW27088   2.862   2.254   6.788
 7414SOL    HW127089   2.783   2.298   6.758
 7414SOL    HW227090   2.890   2.200   6.714
 7415SOL     OW27091   2.885   2.544   5.991
 7415SOL    HW127092   2.870   2.498   6.073
 7415SOL    HW227093   2.815   2.513   5.933
 7416SOL     OW27094   1.972   2.680   6.313
 7416SOL    HW127095   2.002   2.690   6.403
 7416SOL    HW227096   1.882   2.714   6.314
 7417SOL     OW27097   1.992   3.640   7.125
 7417SOL    HW127098   1.965   3.647   7.216
 7417SOL    HW227099   1.916   3.667   7.074
 7418SOL     OW27100   2.704   2.176   5.754
 7418SOL    HW127101   2.738   2.195   5.666
 7418SOL    HW227102   2.649   2.099   5.743
 7419SOL     OW27103   3.645   2.456   7.389
 7419SOL    HW127104   3.580   2.511   7.346
 7419SOL    HW227105   3.629   2.368   7.355
 7420SOL     OW27106   2.853   3.326   6.047
 7420SOL    HW127107   2.839   3.393   5.981
 7420SOL    HW227108   2.805   3.358   6.124
 7421SOL     OW27109   2.206   3.624   6.509
 7421SOL    HW127110   2.280   3.563   6.504
 7421SOL    HW227111   2.205   3.667   6.423
 7422SOL     OW27112   3.702   2.974   6.496
 7422SOL    HW127113   3.683   2.923   6.418
 7422SOL    HW227114   3.628   2.958   6.554
 7423SOL     OW27115   3.067   3.438   7.106
 7423SOL    HW127116   3.058   3.356   7.154
 7423SOL    HW227117   2.980   3.453   7.069
 7424SOL     OW27118   2.153   2.783   5.864
 7424SOL    HW127119   2.182   2.775   5.773
 7424SOL    HW227120   2.092   2.710   5.876
 7425SOL     OW27121   3.367   2.622   6.287
 7425SOL    HW127122   3.289   2.569   6.302
 7425SOL    HW227123   3.438   2.572   6.326
 7426SOL     OW27124   2.298   3.159   7.351
 7426SOL    HW127125   2.292   3.134   7.258
 7426SOL    HW227126   2.208   3.153   7.383
 7427SOL     OW27127   3.010   3.654   5.823
 7427SOL    HW127128   2.924   3.632   5.860
 7427SOL    HW227129   3.020   3.592   5.751
 7428SOL     OW27130   3.496   3.260   5.688
 7428SOL    HW127131   3.448   3.342   5.676
 7428SOL    HW227132   3.433   3.192   5.666
 7429SOL     OW27133   2.440   3.678   5.884
 7429SOL    HW127134   2.357   3.656   5.926
 7429SOL    HW227135   2.463   3.600   5.834
 7430SOL     OW27136   2.165   3.648   6.783
 7430SOL    HW127137   2.096   3.585   6.803
 7430SOL    HW227138   2.179   3.639   6.689
 7431SOL     OW27139   2.870   3.488   6.433
 7431SOL    HW127140   2.829   3.430   6.498
 7431SOL    HW227141   2.817   3.476   6.354
 7432SOL     OW27142   2.279   2.513   6.058
 7432SOL    HW127143   2.299   2.425   6.091
 7432SOL    HW227144   2.184   2.521   6.065
 7433SOL     OW27145   3.351   2.100   7.316
 7433SOL    HW127146   3.345   2.106   7.411
 7433SOL    HW227147   3.315   2.014   7.295
 7434SOL     OW27148   2.533   1.956   5.704
 7434SOL    HW127149   2.545   1.890   5.772
 7434SOL    HW227150   2.470   1.917   5.643
 7435SOL     OW27151   2.664   2.122   7.405
 7435SOL    HW127152   2.704   2.059   7.345
 7435SOL    HW227153   2.599   2.071   7.453
 7436SOL     OW27154   2.756   3.426   6.773
 7436SOL    HW127155   2.725   3.383   6.694
 7436SOL    HW227156   2.798   3.356   6.823
 7437SOL     OW27157   3.263   2.470   7.067
 7437SOL    HW127158   3.226   2.423   7.142
 7437SOL    HW227159   3.226   2.426   6.990
 7438SOL     OW27160   2.708   3.284   6.535
 7438SOL    HW127161   2.765   3.216   6.498
 7438SOL    HW227162   2.624   3.272   6.491
 7439SOL     OW27163   2.853   2.386   6.477
 7439SOL    HW127164   2.827   2.381   6.385
 7439SOL    HW227165   2.901   2.304   6.492
 7440SOL     OW27166   2.424   1.958   6.086
 7440SOL    HW127167   2.367   1.971   6.161
 7440SOL    HW227168   2.399   2.026   6.024
 7441SOL     OW27169   3.303   3.064   5.621
 7441SOL    HW127170   3.350   2.995   5.668
 7441SOL    HW227171   3.211   3.040   5.630
 7442SOL     OW27172   2.166   1.925   5.757
 7442SOL    HW127173   2.209   2.001   5.797
 7442SOL    HW227174   2.204   1.849   5.802
 7443SOL     OW27175   2.784   2.145   6.020
 7443SOL    HW127176   2.768   2.160   5.927
 7443SOL    HW227177   2.879   2.157   6.031
 7444SOL     OW27178   3.137   3.567   6.459
 7444SOL    HW127179   3.150   3.601   6.371
 7444SOL    HW227180   3.048   3.532   6.458
 7445SOL     OW27181   2.366   3.025   6.295
 7445SOL    HW127182   2.303   3.000   6.363
 7445SOL    HW227183   2.320   3.007   6.213
 7446SOL     OW27184   3.153   3.672   6.197
 7446SOL    HW127185   3.177   3.740   6.133
 7446SOL    HW227186   3.060   3.685   6.213
 7447SOL     OW27187   2.896   2.382   5.621
 7447SOL    HW127188   2.817   2.424   5.653
 7447SOL    HW227189   2.947   2.362   5.700
 7448SOL     OW27190   1.965   2.534   6.988
 7448SOL    HW127191   2.005   2.456   7.027
 7448SOL    HW227192   1.879   2.505   6.958
 7449SOL     OW27193   2.820   2.376   6.201
 7449SOL    HW127194   2.749   2.323   6.165
 7449SOL    HW227195   2.892   2.315   6.214
 7450SOL     OW27196   2.839   1.923   6.357
 7450SOL    HW127197   2.792   1.919   6.274
 7450SOL    HW227198   2.849   1.831   6.383
 7451SOL     OW27199   3.264   2.963   6.448
 7451SOL    HW127200   3.224   2.893   6.499
 7451SOL    HW227201   3.244   2.941   6.357
 7452SOL     OW27202   3.284   2.500   6.608
 7452SOL    HW127203   3.243   2.414   6.597
 7452SOL    HW227204   3.360   2.482   6.665
 7453SOL     OW27205   3.735   2.671   5.928
 7453SOL    HW127206   3.765   2.617   6.001
 7453SOL    HW227207   3.690   2.610   5.869
 7454SOL     OW27208   2.335   3.334   5.738
 7454SOL    HW127209   2.281   3.283   5.799
 7454SOL    HW227210   2.279   3.349   5.662
 7455SOL     OW27211   3.571   3.167   6.156
 7455SOL    HW127212   3.656   3.142   6.193
 7455SOL    HW227213   3.534   3.228   6.220
 7456SOL     OW27214   3.249   2.393   5.682
 7456SOL    HW127215   3.173   2.390   5.740
 7456SOL    HW227216   3.303   2.319   5.710
 7457SOL     OW27217   2.353   2.107   5.861
 7457SOL    HW127218   2.423   2.068   5.809
 7457SOL    HW227219   2.347   2.197   5.829
 7458SOL     OW27220   3.584   3.009   7.163
 7458SOL    HW127221   3.602   2.921   7.130
 7458SOL    HW227222   3.641   3.018   7.239
 7459SOL     OW27223   2.852   3.227   6.937
 7459SOL    HW127224   2.761   3.220   6.966
 7459SOL    HW227225   2.878   3.137   6.917
 7460SOL     OW27226   3.437   3.513   7.227
 7460SOL    HW127227   3.405   3.473   7.146
 7460SOL    HW227228   3.529   3.488   7.231
 7461SOL     OW27229   2.948   3.087   6.667
 7461SOL    HW127230   2.862   3.055   6.693
 7461SOL    HW227231   2.943   3.096   6.572
 7462SOL     OW27232   3.464   2.935   6.639
 7462SOL    HW127233   3.399   2.953   6.708
 7462SOL    HW227234   3.413   2.935   6.558
 7463SOL     OW27235   2.877   1.967   6.915
 7463SOL    HW127236   2.879   1.910   6.838
 7463SOL    HW227237   2.962   1.953   6.957
 7464SOL     OW27238   2.838   3.027   7.306
 7464SOL    HW127239   2.743   3.027   7.303
 7464SOL    HW227240   2.864   2.942   7.272
 7465SOL     OW27241   2.590   2.936   5.952
 7465SOL    HW127242   2.542   2.916   6.032
 7465SOL    HW227243   2.670   2.884   5.958
 7466SOL     OW27244   2.332   2.678   6.832
 7466SOL    HW127245   2.386   2.697   6.909
 7466SOL    HW227246   2.317   2.584   6.837
 7467SOL     OW27247   3.123   2.322   6.880
 7467SOL    HW127248   3.029   2.310   6.873
 7467SOL    HW227249   3.157   2.299   6.793
 7468SOL     OW27250   1.960   3.458   6.824
 7468SOL    HW127251   1.879   3.500   6.793
 7468SOL    HW227252   1.942   3.364   6.818
 7469SOL     OW27253   2.281   2.971   6.034
 7469SOL    HW127254   2.246   3.050   5.992
 7469SOL    HW227255   2.242   2.899   5.986
 7470SOL     OW27256   2.392   2.534   6.491
 7470SOL    HW127257   2.408   2.543   6.397
 7470SOL    HW227258   2.377   2.440   6.503
 7471SOL     OW27259   3.033   3.114   6.027
 7471SOL    HW127260   3.108   3.161   5.990
 7471SOL    HW227261   2.964   3.181   6.033
 7472SOL     OW27262   3.129   3.286   6.746
 7472SOL    HW127263   3.163   3.241   6.824
 7472SOL    HW227264   3.052   3.234   6.721
 7473SOL     OW27265   3.403   2.495   6.034
 7473SOL    HW127266   3.371   2.416   6.077
 7473SOL    HW227267   3.393   2.564   6.100
 7474SOL     OW27268   2.219   3.351   6.932
 7474SOL    HW127269   2.189   3.323   6.846
 7474SOL    HW227270   2.302   3.396   6.915
 7475SOL     OW27271   2.371   2.494   7.237
 7475SOL    HW127272   2.373   2.546   7.156
 7475SOL    HW227273   2.325   2.414   7.213
 7476SOL     OW27274   3.463   2.602   7.233
 7476SOL    HW127275   3.393   2.665   7.252
 7476SOL    HW227276   3.421   2.537   7.176
 7477SOL     OW27277   2.826   1.941   7.252
 7477SOL    HW127278   2.786   1.889   7.183
 7477SOL    HW227279   2.865   1.877   7.311
 7478SOL     OW27280   2.359   1.998   7.316
 7478SOL    HW127281   2.336   1.911   7.282
 7478SOL    HW227282   2.274   2.037   7.337
 7479SOL     OW27283   2.439   2.877   6.668
 7479SOL    HW127284   2.371   2.893   6.602
 7479SOL    HW227285   2.407   2.801   6.716
 7480SOL     OW27286   3.166   2.746   6.589
 7480SOL    HW127287   3.075   2.717   6.586
 7480SOL    HW227288   3.217   2.665   6.591
 7481SOL     OW27289   3.046   2.363   5.859
 7481SOL    HW127290   3.055   2.290   5.921
 7481SOL    HW227291   2.993   2.427   5.906
 7482SOL     OW27292   1.920   3.196   6.903
 7482SOL    HW127293   1.963   3.122   6.946
 7482SOL    HW227294   1.827   3.187   6.926
 7483SOL     OW27295   2.633   2.498   6.622
 7483SOL    HW127296   2.679   2.443   6.559
 7483SOL    HW227297   2.542   2.497   6.592
 7484SOL     OW27298   3.598   2.828   7.424
 7484SOL    HW127299   3.556   2.750   7.387
 7484SOL    HW227300   3.554   2.841   7.508
 7485SOL     OW27301   2.228   1.999   6.277
 7485SOL    HW127302   2.233   2.076   6.333
 7485SOL    HW227303   2.233   1.925   6.338
 7486SOL     OW27304   3.542   2.293   5.915
 7486SOL    HW127305   3.554   2.226   5.983
 7486SOL    HW227306   3.492   2.362   5.958
 7487SOL     OW27307   2.913   2.635   6.601
 7487SOL    HW127308   2.878   2.625   6.689
 7487SOL    HW227309   2.904   2.548   6.562
 7488SOL     OW27310   2.783   3.369   7.258
 7488SOL    HW127311   2.790   3.429   7.184
 7488SOL    HW227312   2.691   3.343   7.258
 7489SOL     OW27313   3.704   3.448   7.229
 7489SOL    HW127314   3.733   3.458   7.139
 7489SOL    HW227315   3.783   3.424   7.278
 7490SOL     OW27316   2.273   2.718   7.372
 7490SOL    HW127317   2.312   2.635   7.342
 7490SOL    HW227318   2.190   2.723   7.323
 7491SOL     OW27319   3.423   2.183   5.694
 7491SOL    HW127320   3.364   2.110   5.714
 7491SOL    HW227321   3.473   2.195   5.775
 7492SOL     OW27322   3.246   2.671   5.682
 7492SOL    HW127323   3.249   2.575   5.681
 7492SOL    HW227324   3.244   2.696   5.590
 7493SOL     OW27325   2.902   3.126   6.397
 7493SOL    HW127326   2.885   3.042   6.354
 7493SOL    HW227327   2.945   3.179   6.330
 7494SOL     OW27328   2.173   2.693   6.551
 7494SOL    HW127329   2.244   2.636   6.522
 7494SOL    HW227330   2.153   2.662   6.640
 7495SOL     OW27331   2.908   2.184   7.133
 7495SOL    HW127332   2.887   2.110   7.190
 7495SOL    HW227333   2.964   2.240   7.188
 7496SOL     OW27334   3.133   2.027   7.033
 7496SOL    HW127335   3.073   2.100   7.050
 7496SOL    HW227336   3.198   2.063   6.973
 7497SOL     OW27337   1.936   3.151   5.794
 7497SOL    HW127338   1.854   3.184   5.758
 7497SOL    HW227339   1.911   3.069   5.837
 7498SOL     OW27340   1.936   3.662   6.441
 7498SOL    HW127341   1.873   3.590   6.435
 7498SOL    HW227342   2.008   3.627   6.492
 7499SOL     OW27343   2.417   3.452   6.535
 7499SOL    HW127344   2.398   3.402   6.615
 7499SOL    HW227345   2.430   3.384   6.468
 7500SOL     OW27346   2.761   2.605   6.832
 7500SOL    HW127347   2.741   2.550   6.908
 7500SOL    HW227348   2.706   2.571   6.762
 7501SOL     OW27349   2.040   2.398   7.288
 7501SOL    HW127350   2.087   2.315   7.293
 7501SOL    HW227351   1.954   2.375   7.253
 7502SOL     OW27352   3.262   2.791   7.252
 7502SOL    HW127353   3.263   2.887   7.253
 7502SOL    HW227354   3.253   2.768   7.159
 7503SOL     OW27355   2.697   2.451   5.820
 7503SOL    HW127356   2.675   2.358   5.813
 7503SOL    HW227357   2.612   2.494   5.830
 7504SOL     OW27358   3.513   2.469   6.766
 7504SOL    HW127359   3.514   2.406   6.837
 7504SOL    HW227360   3.580   2.437   6.705
 7505SOL     OW27361   2.100   3.390   7.269
 7505SOL    HW127362   2.081   3.463   7.328
 7505SOL    HW227363   2.076   3.312   7.319
 7506SOL     OW27364   2.580   2.275   6.833
 7506SOL    HW127365   2.507   2.219   6.860
 7506SOL    HW227366   2.554   2.309   6.748
 7507SOL     OW27367   2.811   3.539   7.034
 7507SOL    HW127368   2.782   3.501   6.951
 7507SOL    HW227369   2.778   3.629   7.031
 7508SOL     OW27370   2.359   2.346   5.725
 7508SOL    HW127371   2.402   2.421   5.764
 7508SOL    HW227372   2.268   2.373   5.714
 7509SOL     OW27373   2.039   2.988   7.036
 7509SOL    HW127374   1.974   2.956   7.098
 7509SOL    HW227375   2.054   2.915   6.976
 7510SOL     OW27376   3.186   2.968   6.755
 7510SOL    HW127377   3.185   2.878   6.723
 7510SOL    HW227378   3.103   3.004   6.726
 7511SOL     OW27379   3.116   2.719   5.926
 7511SOL    HW127380   3.068   2.639   5.945
 7511SOL    HW227381   3.165   2.700   5.846
 7512SOL     OW27382   3.663   3.543   6.749
 7512SOL    HW127383   3.716   3.573   6.676
 7512SOL    HW227384   3.629   3.458   6.722
 7513SOL     OW27385   3.165   3.564   6.738
 7513SOL    HW127386   3.142   3.576   6.646
 7513SOL    HW227387   3.130   3.477   6.760
 7514SOL     OW27388   1.998   3.093   6.628
 7514SOL    HW127389   1.951   3.101   6.711
 7514SOL    HW227390   1.935   3.054   6.568
 7515SOL     OW27391   2.483   3.576   7.280
 7515SOL    HW127392   2.409   3.625   7.316
 7515SOL    HW227393   2.484   3.599   7.188
 7516SOL     OW27394   3.313   3.452   6.140
 7516SOL    HW127395   3.336   3.458   6.047
 7516SOL    HW227396   3.241   3.514   6.152
 7517SOL     OW27397   2.031   3.617   7.428
 7517SOL    HW127398   1.962   3.561   7.465
 7517SOL    HW227399   2.053   3.677   7.499
 7518SOL     OW27400   3.175   2.820   6.224
 7518SOL    HW127401   3.256   2.769   6.224
 7518SOL    HW227402   3.110   2.761   6.263
 7519SOL     OW27403   2.582   3.214   6.973
 7519SOL    HW127404   2.525   3.216   7.050
 7519SOL    HW227405   2.524   3.190   6.901
 7520SOL     OW27406   2.552   3.489   5.710
 7520SOL    HW127407   2.532   3.521   5.622
 7520SOL    HW227408   2.482   3.427   5.729
 7521SOL     OW27409   3.728   2.032   6.580
 7521SOL    HW127410   3.745   1.942   6.551
 7521SOL    HW227411   3.647   2.057   6.536
 7522SOL     OW27412   3.071   3.488   5.608
 7522SOL    HW127413   3.048   3.401   5.641
 7522SOL    HW227414   3.005   3.506   5.541
 7523SOL     OW27415   2.726   2.851   6.944
 7523SOL    HW127416   2.745   2.770   6.896
 7523SOL    HW227417   2.705   2.914   6.875
 7524SOL     OW27418   2.835   2.806   5.926
 7524SOL    HW127419   2.818   2.802   5.832
 7524SOL    HW227420   2.840   2.715   5.954
 7525SOL     OW27421   3.346   3.521   5.645
 7525SOL    HW127422   3.255   3.501   5.621
 7525SOL    HW227423   3.393   3.521   5.562
 7526SOL     OW27424   2.283   3.122   7.081
 7526SOL    HW127425   2.262   3.200   7.029
 7526SOL    HW227426   2.210   3.062   7.065
 7527SOL     OW27427   3.536   3.157   6.934
 7527SOL    HW127428   3.566   3.110   7.012
 7527SOL    HW227429   3.441   3.143   6.932
 7528SOL     OW27430   2.870   2.895   6.240
 7528SOL    HW127431   2.775   2.898   6.231
 7528SOL    HW227432   2.887   2.813   6.286
 7529SOL     OW27433   2.935   2.087   6.570
 7529SOL    HW127434   2.914   2.069   6.479
 7529SOL    HW227435   2.919   2.005   6.616
 7530SOL     OW27436   2.430   3.355   6.079
 7530SOL    HW127437   2.480   3.306   6.014
 7530SOL    HW227438   2.339   3.350   6.048
 7531SOL     OW27439   3.550   2.274   6.971
 7531SOL    HW127440   3.629   2.239   6.931
 7531SOL    HW227441   3.483   2.207   6.955
 7532SOL     OW27442   2.170   3.215   5.930
 7532SOL    HW127443   2.092   3.196   5.878
 7532SOL    HW227444   2.135   3.249   6.013
 7533SOL     OW27445   1.953   2.916   7.337
 7533SOL    HW127446   1.878   2.889   7.389
 7533SOL    HW227447   1.985   2.836   7.297
 7534SOL     OW27448   2.566   2.070   7.103
 7534SOL    HW127449   2.521   2.004   7.050
 7534SOL    HW227450   2.509   2.082   7.180
 7535SOL     OW27451   1.826   2.169   5.666
 7535SOL    HW127452   1.734   2.144   5.678
 7535SOL    HW227453   1.827   2.264   5.676
 7536SOL     OW27454   3.303   2.735   6.990
 7536SOL    HW127455   3.278   2.643   6.997
 7536SOL    HW227456   3.376   2.735   6.927
 7537SOL     OW27457   1.913   2.028   5.950
 7537SOL    HW127458   1.831   2.045   5.997
 7537SOL    HW227459   1.970   1.987   6.015
 7538SOL     OW27460   2.987   3.238   5.682
 7538SOL    HW127461   2.891   3.243   5.688
 7538SOL    HW227462   3.006   3.145   5.691
 7539SOL     OW27463   2.507   2.700   7.043
 7539SOL    HW127464   2.574   2.765   7.023
 7539SOL    HW227465   2.555   2.617   7.046
 7540SOL     OW27466   3.395   3.615   6.566
 7540SOL    HW127467   3.412   3.698   6.522
 7540SOL    HW227468   3.317   3.581   6.523
 7541SOL     OW27469   2.617   2.378   7.300
 7541SOL    HW127470   2.525   2.405   7.299
 7541SOL    HW227471   2.614   2.287   7.331
 7542SOL     OW27472   3.317   3.069   7.232
 7542SOL    HW127473   3.319   3.068   7.328
 7542SOL    HW227474   3.407   3.052   7.206
 7543SOL     OW27475   3.535   2.734   6.832
 7543SOL    HW127476   3.529   2.644   6.801
 7543SOL    HW227477   3.527   2.787   6.753
 7544SOL     OW27478   2.455   2.624   6.238
 7544SOL    HW127479   2.476   2.708   6.198
 7544SOL    HW227480   2.392   2.584   6.178
 7545SOL     OW27481   3.594   2.223   7.248
 7545SOL    HW127482   3.582   2.242   7.155
 7545SOL    HW227483   3.515   2.175   7.273
 7546SOL     OW27484   3.648   2.749   7.084
 7546SOL    HW127485   3.585   2.695   7.132
 7546SOL    HW227486   3.617   2.746   6.993
 7547SOL     OW27487   2.713   3.265   5.688
 7547SOL    HW127488   2.675   3.236   5.770
 7547SOL    HW227489   2.672   3.349   5.671
 7548SOL     OW27490   2.532   3.701   6.579
 7548SOL    HW127491   2.493   3.614   6.583
 7548SOL    HW227492   2.529   3.725   6.487
 7549SOL     OW27493   2.696   2.758   6.468
 7549SOL    HW127494   2.772   2.724   6.514
 7549SOL    HW227495   2.623   2.703   6.498
 7550SOL     OW27496   3.039   2.967   5.647
 7550SOL    HW127497   2.980   2.978   5.573
 7550SOL    HW227498   3.015   2.883   5.686
 7551SOL     OW27499   3.735   3.409   6.396
 7551SOL    HW127500   3.642   3.397   6.374
 7551SOL    HW227501   3.754   3.338   6.457
 7552SOL     OW27502   2.036   3.163   7.416
 7552SOL    HW127503   2.013   3.075   7.384
 7552SOL    HW227504   1.983   3.174   7.494
 7553SOL     OW27505   1.978   3.057   6.257
 7553SOL    HW127506   1.915   3.041   6.327
 7553SOL    HW227507   1.965   2.985   6.195
 7554SOL     OW27508   2.511   3.305   7.265
 7554SOL    HW127509   2.428   3.268   7.296
 7554SOL    HW227510   2.497   3.400   7.269
 7555SOL     OW27511   3.723   2.100   6.847
 7555SOL    HW127512   3.638   2.063   6.870
 7555SOL    HW227513   3.735   2.078   6.755
 7556SOL     OW27514   2.313   2.271   6.175
 7556SOL    HW127515   2.253   2.204   6.143
 7556SOL    HW227516   2.304   2.267   6.270
 7557SOL     OW27517   3.494   3.328   6.719
 7557SOL    HW127518   3.448   3.283   6.649
 7557SOL    HW227519   3.517   3.259   6.781
 7558SOL     OW27520   2.296   2.422   6.911
 7558SOL    HW127521   2.259   2.392   6.994
 7558SOL    HW227522   2.325   2.342   6.867
 7559SOL     OW27523   2.685   3.440   6.235
 7559SOL    HW127524   2.632   3.495   6.177
 7559SOL    HW227525   2.622   3.378   6.272
 7560SOL     OW27526   2.901   1.813   6.690
 7560SOL    HW127527   2.840   1.744   6.715
 7560SOL    HW227528   2.965   1.768   6.633
 7561SOL     OW27529   2.618   3.206   5.935
 7561SOL    HW127530   2.595   3.113   5.938
 7561SOL    HW227531   2.696   3.213   5.989
 7562SOL     OW27532   2.460   3.464   6.848
 7562SOL    HW127533   2.466   3.541   6.904
 7562SOL    HW227534   2.549   3.429   6.846
 7563SOL     OW27535   3.250   1.971   5.727
 7563SOL    HW127536   3.301   1.899   5.764
 7563SOL    HW227537   3.159   1.940   5.728
 7564SOL     OW27538   3.169   2.431   6.277
 7564SOL    HW127539   3.099   2.367   6.292
 7564SOL    HW227540   3.239   2.381   6.236
 7565SOL     OW27541   3.487   2.149   6.504
 7565SOL    HW127542   3.447   2.129   6.589
 7565SOL    HW227543   3.421   2.124   6.440
 7566SOL     OW27544   1.915   2.906   5.931
 7566SOL    HW127545   2.007   2.887   5.913
 7566SOL    HW227546   1.870   2.822   5.920
 7567SOL     OW27547   2.756   3.560   5.907
 7567SOL    HW127548   2.688   3.538   5.843
 7567SOL    HW227549   2.714   3.623   5.966
 7568SOL     OW27550   2.084   2.485   7.551
 7568SOL    HW127551   2.021   2.427   7.594
 7568SOL    HW227552   2.070   2.471   7.457
 7569SOL     OW27553   2.065   2.237   8.480
 7569SOL    HW127554   2.062   2.217   8.573
 7569SOL    HW227555   1.995   2.182   8.442
 7570SOL     OW27556   1.836   2.302   8.087
 7570SOL    HW127557   1.758   2.315   8.140
 7570SOL    HW227558   1.817   2.223   8.036
 7571SOL     OW27559   2.457   3.191   8.671
 7571SOL    HW127560   2.371   3.149   8.677
 7571SOL    HW227561   2.438   3.281   8.644
 7572SOL     OW27562   3.428   3.384   8.208
 7572SOL    HW127563   3.374   3.343   8.276
 7572SOL    HW227564   3.366   3.411   8.141
 7573SOL     OW27565   2.935   2.548   8.102
 7573SOL    HW127566   2.946   2.556   8.197
 7573SOL    HW227567   2.882   2.469   8.091
 7574SOL     OW27568   3.633   2.452   7.690
 7574SOL    HW127569   3.612   2.440   7.598
 7574SOL    HW227570   3.585   2.382   7.735
 7575SOL     OW27571   2.662   3.045   8.535
 7575SOL    HW127572   2.591   3.063   8.597
 7575SOL    HW227573   2.675   3.128   8.489
 7576SOL     OW27574   2.756   2.739   9.354
 7576SOL    HW127575   2.669   2.779   9.366
 7576SOL    HW227576   2.740   2.664   9.296
 7577SOL     OW27577   2.535   2.858   8.118
 7577SOL    HW127578   2.573   2.847   8.205
 7577SOL    HW227579   2.465   2.922   8.131
 7578SOL     OW27580   2.580   3.032   9.205
 7578SOL    HW127581   2.564   2.958   9.264
 7578SOL    HW227582   2.494   3.071   9.191
 7579SOL     OW27583   2.183   3.281   8.502
 7579SOL    HW127584   2.115   3.217   8.479
 7579SOL    HW227585   2.157   3.314   8.588
 7580SOL     OW27586   3.318   3.353   8.858
 7580SOL    HW127587   3.379   3.401   8.913
 7580SOL    HW227588   3.234   3.361   8.903
 7581SOL     OW27589   3.471   2.298   8.183
 7581SOL    HW127590   3.389   2.338   8.153
 7581SOL    HW227591   3.442   2.222   8.233
 7582SOL     OW27592   2.160   3.589   7.919
 7582SOL    HW127593   2.188   3.652   7.985
 7582SOL    HW227594   2.080   3.627   7.882
 7583SOL     OW27595   3.040   3.192   9.153
 7583SOL    HW127596   3.059   3.159   9.241
 7583SOL    HW227597   2.963   3.142   9.125
 7584SOL     OW27598   1.998   3.295   8.108
 7584SOL    HW127599   1.953   3.342   8.177
 7584SOL    HW227600   1.979   3.202   8.126
 7585SOL     OW27601   2.196   2.940   8.361
 7585SOL    HW127602   2.160   2.852   8.349
 7585SOL    HW227603   2.123   2.990   8.398
 7586SOL     OW27604   2.425   3.689   8.845
 7586SOL    HW127605   2.355   3.640   8.888
 7586SOL    HW227606   2.447   3.759   8.907
 7587SOL     OW27607   2.503   2.834   7.475
 7587SOL    HW127608   2.517   2.910   7.418
 7587SOL    HW227609   2.420   2.796   7.445
 7588SOL     OW27610   3.390   2.020   8.897
 7588SOL    HW127611   3.295   2.027   8.884
 7588SOL    HW227612   3.402   2.027   8.992
 7589SOL     OW27613   1.992   2.529   8.029
 7589SOL    HW127614   1.942   2.449   8.044
 7589SOL    HW227615   1.963   2.590   8.097
 7590SOL     OW27616   3.768   3.598   7.832
 7590SOL    HW127617   3.675   3.577   7.840
 7590SOL    HW227618   3.771   3.693   7.820
 7591SOL     OW27619   1.856   3.462   7.569
 7591SOL    HW127620   1.792   3.392   7.554
 7591SOL    HW227621   1.832   3.497   7.655
 7592SOL     OW27622   3.653   2.813   8.117
 7592SOL    HW127623   3.709   2.754   8.168
 7592SOL    HW227624   3.594   2.754   8.070
 7593SOL     OW27625   3.499   2.976   7.910
 7593SOL    HW127626   3.540   2.906   7.961
 7593SOL    HW227627   3.525   3.056   7.955
 7594SOL     OW27628   2.505   3.259   8.203
 7594SOL    HW127629   2.451   3.185   8.175
 7594SOL    HW227630   2.445   3.314   8.254
 7595SOL     OW27631   3.142   3.031   8.823
 7595SOL    HW127632   3.158   2.936   8.828
 7595SOL    HW227633   3.164   3.063   8.911
 7596SOL     OW27634   2.698   1.858   7.966
 7596SOL    HW127635   2.750   1.857   8.047
 7596SOL    HW227636   2.613   1.892   7.993
 7597SOL     OW27637   2.012   2.798   8.746
 7597SOL    HW127638   2.082   2.742   8.714
 7597SOL    HW227639   1.933   2.765   8.703
 7598SOL     OW27640   3.442   2.865   7.661
 7598SOL    HW127641   3.378   2.801   7.692
 7598SOL    HW227642   3.474   2.907   7.741
 7599SOL     OW27643   3.104   3.644   9.074
 7599SOL    HW127644   3.022   3.691   9.061
 7599SOL    HW227645   3.089   3.558   9.033
 7600SOL     OW27646   2.106   2.111   9.236
 7600SOL    HW127647   2.114   2.130   9.329
 7600SOL    HW227648   2.048   2.035   9.231
 7601SOL     OW27649   3.294   3.242   8.417
 7601SOL    HW127650   3.235   3.285   8.479
 7601SOL    HW227651   3.277   3.149   8.430
 7602SOL     OW27652   3.510   3.639   8.005
 7602SOL    HW127653   3.444   3.580   7.969
 7602SOL    HW227654   3.537   3.599   8.087
 7603SOL     OW27655   2.441   2.671   7.763
 7603SOL    HW127656   2.375   2.703   7.702
 7603SOL    HW227657   2.392   2.621   7.828
 7604SOL     OW27658   3.103   2.282   8.378
 7604SOL    HW127659   3.008   2.272   8.377
 7604SOL    HW227660   3.134   2.204   8.425
 7605SOL     OW27661   3.507   3.525   7.711
 7605SOL    HW127662   3.486   3.434   7.731
 7605SOL    HW227663   3.455   3.545   7.634
 7606SOL     OW27664   2.660   2.479   8.914
 7606SOL    HW127665   2.629   2.455   9.001
 7606SOL    HW227666   2.618   2.416   8.856
 7607SOL     OW27667   3.264   2.343   9.102
 7607SOL    HW127668   3.262   2.374   9.192
 7607SOL    HW227669   3.314   2.262   9.105
 7608SOL     OW27670   2.942   2.776   8.989
 7608SOL    HW127671   2.930   2.681   8.986
 7608SOL    HW227672   2.878   2.810   8.927
 7609SOL     OW27673   2.850   2.288   8.686
 7609SOL    HW127674   2.760   2.302   8.716
 7609SOL    HW227675   2.841   2.231   8.609
 7610SOL     OW27676   2.828   2.539   7.849
 7610SOL    HW127677   2.872   2.580   7.923
 7610SOL    HW227678   2.793   2.457   7.885
 7611SOL     OW27679   1.922   2.730   8.222
 7611SOL    HW127680   2.004   2.704   8.263
 7611SOL    HW227681   1.862   2.747   8.295
 7612SOL     OW27682   2.003   3.757   9.001
 7612SOL    HW127683   1.965   3.755   9.088
 7612SOL    HW227684   1.934   3.723   8.943
 7613SOL     OW27685   2.814   2.219   7.613
 7613SOL    HW127686   2.765   2.180   7.540
 7613SOL    HW227687   2.864   2.146   7.650
 7614SOL     OW27688   3.596   2.465   9.243
 7614SOL    HW127689   3.549   2.532   9.195
 7614SOL    HW227690   3.593   2.388   9.186
 7615SOL     OW27691   3.216   2.960   7.931
 7615SOL    HW127692   3.311   2.970   7.925
 7615SOL    HW227693   3.197   2.883   7.877
 7616SOL     OW27694   2.438   2.006   8.413
 7616SOL    HW127695   2.505   2.039   8.474
 7616SOL    HW227696   2.448   2.060   8.335
 7617SOL     OW27697   2.878   3.362   7.938
 7617SOL    HW127698   2.852   3.419   7.866
 7617SOL    HW227699   2.821   3.386   8.011
 7618SOL     OW27700   2.213   3.645   8.337
 7618SOL    HW127701   2.274   3.571   8.338
 7618SOL    HW227702   2.179   3.648   8.427
 7619SOL     OW27703   3.637   3.019   8.299
 7619SOL    HW127704   3.632   2.941   8.244
 7619SOL    HW227705   3.582   3.000   8.374
 7620SOL     OW27706   3.067   3.385   8.963
 7620SOL    HW127707   3.058   3.325   9.037
 7620SOL    HW227708   3.006   3.352   8.897
 7621SOL     OW27709   2.191   2.738   7.636
 7621SOL    HW127710   2.216   2.742   7.543
 7621SOL    HW227711   2.140   2.657   7.643
 7622SOL     OW27712   3.316   2.602   8.210
 7622SOL    HW127713   3.267   2.529   8.172
 7622SOL    HW227714   3.330   2.576   8.301
 7623SOL     OW27715   2.334   3.158   9.178
 7623SOL    HW127716   2.298   3.183   9.093
 7623SOL    HW227717   2.261   3.120   9.226
 7624SOL     OW27718   2.997   3.705   7.606
 7624SOL    HW127719   2.937   3.651   7.658
 7624SOL    HW227720   2.941   3.743   7.538
 7625SOL     OW27721   3.462   3.261   7.574
 7625SOL    HW127722   3.425   3.331   7.519
 7625SOL    HW227723   3.403   3.187   7.560
 7626SOL     OW27724   2.395   3.717   7.704
 7626SOL    HW127725   2.405   3.712   7.799
 7626SOL    HW227726   2.433   3.635   7.672
 7627SOL     OW27727   3.244   2.006   7.881
 7627SOL    HW127728   3.244   1.959   7.797
 7627SOL    HW227729   3.205   1.944   7.942
 7628SOL     OW27730   2.093   3.632   8.587
 7628SOL    HW127731   2.127   3.561   8.641
 7628SOL    HW227732   1.999   3.614   8.580
 7629SOL     OW27733   2.896   3.501   8.321
 7629SOL    HW127734   2.857   3.479   8.406
 7629SOL    HW227735   2.834   3.465   8.257
 7630SOL     OW27736   2.270   2.541   7.947
 7630SOL    HW127737   2.283   2.446   7.953
 7630SOL    HW227738   2.178   2.554   7.966
 7631SOL     OW27739   3.385   2.072   9.171
 7631SOL    HW127740   3.386   2.109   9.260
 7631SOL    HW227741   3.355   1.982   9.183
 7632SOL     OW27742   2.498   1.958   7.555
 7632SOL    HW127743   2.505   1.864   7.572
 7632SOL    HW227744   2.434   1.965   7.484
 7633SOL     OW27745   2.625   2.125   9.194
 7633SOL    HW127746   2.708   2.083   9.169
 7633SOL    HW227747   2.584   2.063   9.255
 7634SOL     OW27748   2.765   3.404   8.634
 7634SOL    HW127749   2.737   3.358   8.555
 7634SOL    HW227750   2.816   3.339   8.683
 7635SOL     OW27751   3.186   2.503   8.882
 7635SOL    HW127752   3.229   2.452   8.950
 7635SOL    HW227753   3.094   2.505   8.908
 7636SOL     OW27754   2.709   3.277   8.394
 7636SOL    HW127755   2.785   3.247   8.344
 7636SOL    HW227756   2.636   3.272   8.333
 7637SOL     OW27757   2.786   2.350   8.343
 7637SOL    HW127758   2.692   2.365   8.336
 7637SOL    HW227759   2.793   2.264   8.384
 7638SOL     OW27760   2.451   1.980   7.997
 7638SOL    HW127761   2.363   1.947   8.017
 7638SOL    HW227762   2.442   2.024   7.913
 7639SOL     OW27763   3.300   3.041   7.504
 7639SOL    HW127764   3.351   2.977   7.554
 7639SOL    HW227765   3.208   3.016   7.519
 7640SOL     OW27766   2.188   1.952   7.693
 7640SOL    HW127767   2.160   1.942   7.602
 7640SOL    HW227768   2.226   1.868   7.717
 7641SOL     OW27769   2.864   2.085   7.996
 7641SOL    HW127770   2.808   2.029   7.942
 7641SOL    HW227771   2.883   2.033   8.074
 7642SOL     OW27772   2.925   2.489   8.957
 7642SOL    HW127773   2.831   2.493   8.939
 7642SOL    HW227774   2.937   2.406   9.003
 7643SOL     OW27775   3.163   3.545   8.281
 7643SOL    HW127776   3.159   3.590   8.196
 7643SOL    HW227777   3.075   3.511   8.294
 7644SOL     OW27778   2.330   3.043   8.142
 7644SOL    HW127779   2.281   3.015   8.219
 7644SOL    HW227780   2.271   3.026   8.068
 7645SOL     OW27781   3.123   3.683   8.048
 7645SOL    HW127782   3.139   3.748   7.979
 7645SOL    HW227783   3.038   3.708   8.084
 7646SOL     OW27784   2.760   2.478   7.512
 7646SOL    HW127785   2.715   2.450   7.432
 7646SOL    HW227786   2.799   2.398   7.547
 7647SOL     OW27787   1.962   2.461   8.775
 7647SOL    HW127788   2.055   2.444   8.790
 7647SOL    HW227789   1.947   2.546   8.818
 7648SOL     OW27790   2.763   2.339   8.024
 7648SOL    HW127791   2.673   2.335   8.057
 7648SOL    HW227792   2.793   2.249   8.022
 7649SOL     OW27793   3.292   2.488   8.466
 7649SOL    HW127794   3.235   2.413   8.447
 7649SOL    HW227795   3.361   2.452   8.522
 7650SOL     OW27796   3.789   2.664   7.784
 7650SOL    HW127797   3.812   2.628   7.870
 7650SOL    HW227798   3.721   2.606   7.751
 7651SOL     OW27799   2.371   3.284   7.588
 7651SOL    HW127800   2.304   3.265   7.653
 7651SOL    HW227801   2.344   3.236   7.510
 7652SOL     OW27802   3.582   3.179   8.081
 7652SOL    HW127803   3.598   3.128   8.160
 7652SOL    HW227804   3.528   3.253   8.110
 7653SOL     OW27805   3.213   2.412   7.530
 7653SOL    HW127806   3.166   2.427   7.612
 7653SOL    HW227807   3.262   2.331   7.546
 7654SOL     OW27808   2.428   2.141   7.761
 7654SOL    HW127809   2.454   2.067   7.706
 7654SOL    HW227810   2.361   2.186   7.710
 7655SOL     OW27811   3.614   3.125   9.011
 7655SOL    HW127812   3.670   3.048   9.024
 7655SOL    HW227813   3.529   3.100   9.048
 7656SOL     OW27814   2.932   3.220   8.778
 7656SOL    HW127815   2.846   3.195   8.811
 7656SOL    HW227816   2.986   3.142   8.790
 7657SOL     OW27817   3.492   3.502   9.016
 7657SOL    HW127818   3.517   3.580   8.966
 7657SOL    HW227819   3.573   3.453   9.026
 7658SOL     OW27820   2.897   2.898   8.557
 7658SOL    HW127821   2.885   2.846   8.636
 7658SOL    HW227822   2.822   2.957   8.554
 7659SOL     OW27823   3.497   2.997   8.534
 7659SOL    HW127824   3.514   3.047   8.614
 7659SOL    HW227825   3.402   2.983   8.534
 7660SOL     OW27826   2.793   1.956   8.847
 7660SOL    HW127827   2.837   2.026   8.798
 7660SOL    HW227828   2.822   1.968   8.937
 7661SOL     OW27829   2.831   3.033   9.089
 7661SOL    HW127830   2.745   3.033   9.132
 7661SOL    HW227831   2.855   2.941   9.083
 7662SOL     OW27832   2.592   2.903   7.854
 7662SOL    HW127833   2.575   2.885   7.946
 7662SOL    HW227834   2.541   2.837   7.807
 7663SOL     OW27835   2.250   2.652   8.702
 7663SOL    HW127836   2.273   2.681   8.790
 7663SOL    HW227837   2.242   2.557   8.709
 7664SOL     OW27838   3.120   2.273   8.723
 7664SOL    HW127839   3.150   2.357   8.757
 7664SOL    HW227840   3.027   2.286   8.706
 7665SOL     OW27841   1.920   3.425   8.855
 7665SOL    HW127842   1.874   3.506   8.834
 7665SOL    HW227843   1.891   3.404   8.944
 7666SOL     OW27844   2.187   2.969   7.895
 7666SOL    HW127845   2.100   2.943   7.864
 7666SOL    HW227846   2.245   2.899   7.866
 7667SOL     OW27847   2.519   2.431   8.327
 7667SOL    HW127848   2.518   2.482   8.246
 7667SOL    HW227849   2.428   2.405   8.340
 7668SOL     OW27850   3.125   3.250   7.870
 7668SOL    HW127851   3.136   3.160   7.899
 7668SOL    HW227852   3.038   3.275   7.901
 7669SOL     OW27853   3.150   3.345   8.634
 7669SOL    HW127854   3.213   3.342   8.705
 7669SOL    HW227855   3.073   3.299   8.668
 7670SOL     OW27856   3.478   2.652   7.990
 7670SOL    HW127857   3.422   2.632   8.065
 7670SOL    HW227858   3.459   2.584   7.926
 7671SOL     OW27859   2.169   3.420   8.750
 7671SOL    HW127860   2.079   3.424   8.781
 7671SOL    HW227861   2.214   3.362   8.811
 7672SOL     OW27862   3.473   2.683   9.122
 7672SOL    HW127863   3.381   2.710   9.116
 7672SOL    HW227864   3.516   2.728   9.050
 7673SOL     OW27865   2.862   2.009   9.108
 7673SOL    HW127866   2.918   2.085   9.122
 7673SOL    HW227867   2.921   1.934   9.117
 7674SOL     OW27868   2.305   1.909   9.242
 7674SOL    HW127869   2.287   1.837   9.181
 7674SOL    HW227870   2.244   1.978   9.216
 7675SOL     OW27871   2.386   2.761   8.494
 7675SOL    HW127872   2.341   2.843   8.473
 7675SOL    HW227873   2.341   2.729   8.573
 7676SOL     OW27874   3.141   2.711   8.532
 7676SOL    HW127875   3.078   2.679   8.597
 7676SOL    HW227876   3.195   2.635   8.511
 7677SOL     OW27877   3.091   2.465   7.774
 7677SOL    HW127878   3.097   2.384   7.824
 7677SOL    HW227879   2.999   2.491   7.781
 7678SOL     OW27880   1.979   3.177   8.719
 7678SOL    HW127881   1.993   3.113   8.789
 7678SOL    HW227882   1.933   3.249   8.761
 7679SOL     OW27883   2.628   2.614   8.516
 7679SOL    HW127884   2.602   2.536   8.468
 7679SOL    HW227885   2.545   2.658   8.535
 7680SOL     OW27886   3.612   2.834   9.312
 7680SOL    HW127887   3.563   2.772   9.259
 7680SOL    HW227888   3.559   2.846   9.391
 7681SOL     OW27889   2.192   1.926   8.086
 7681SOL    HW127890   2.140   2.004   8.107
 7681SOL    HW227891   2.201   1.880   8.169
 7682SOL     OW27892   3.478   2.239   7.824
 7682SOL    HW127893   3.533   2.171   7.862
 7682SOL    HW227894   3.396   2.235   7.874
 7683SOL     OW27895   2.916   2.585   8.379
 7683SOL    HW127896   2.909   2.590   8.475
 7683SOL    HW227897   2.870   2.504   8.356
 7684SOL     OW27898   2.872   3.488   9.209
 7684SOL    HW127899   2.796   3.506   9.153
 7684SOL    HW227900   2.843   3.418   9.267
 7685SOL     OW27901   3.736   3.374   9.013
 7685SOL    HW127902   3.701   3.286   9.024
 7685SOL    HW227903   3.808   3.380   9.077
 7686SOL     OW27904   3.340   2.170   7.588
 7686SOL    HW127905   3.294   2.088   7.606
 7686SOL    HW227906   3.394   2.185   7.665
 7687SOL     OW27907   3.173   2.691   7.493
 7687SOL    HW127908   3.180   2.596   7.494
 7687SOL    HW227909   3.197   2.715   7.403
 7688SOL     OW27910   2.920   3.182   8.250
 7688SOL    HW127911   2.905   3.090   8.228
 7688SOL    HW227912   3.008   3.200   8.219
 7689SOL     OW27913   2.171   2.655   8.335
 7689SOL    HW127914   2.251   2.677   8.384
 7689SOL    HW227915   2.176   2.561   8.322
 7690SOL     OW27916   2.237   2.379   8.320
 7690SOL    HW127917   2.186   2.335   8.388
 7690SOL    HW227918   2.215   2.331   8.239
 7691SOL     OW27919   3.002   2.252   9.103
 7691SOL    HW127920   2.956   2.277   9.183
 7691SOL    HW227921   3.090   2.288   9.114
 7692SOL     OW27922   3.121   2.075   8.908
 7692SOL    HW127923   3.074   2.116   8.981
 7692SOL    HW227924   3.119   2.140   8.838
 7693SOL     OW27925   1.892   3.152   7.650
 7693SOL    HW127926   1.802   3.174   7.628
 7693SOL    HW227927   1.889   3.059   7.674
 7694SOL     OW27928   1.939   3.673   8.288
 7694SOL    HW127929   1.890   3.591   8.289
 7694SOL    HW227930   2.031   3.645   8.296
 7695SOL     OW27931   2.375   3.424   8.381
 7695SOL    HW127932   2.421   3.450   8.461
 7695SOL    HW227933   2.303   3.369   8.412
 7696SOL     OW27934   2.881   2.611   8.650
 7696SOL    HW127935   2.882   2.544   8.718
 7696SOL    HW227936   2.789   2.618   8.626
 7697SOL     OW27937   1.881   2.442   8.516
 7697SOL    HW127938   1.944   2.378   8.482
 7697SOL    HW227939   1.909   2.458   8.606
 7698SOL     OW27940   3.208   2.789   9.097
 7698SOL    HW127941   3.115   2.803   9.115
 7698SOL    HW227942   3.213   2.773   9.003
 7699SOL     OW27943   2.608   2.353   7.745
 7699SOL    HW127944   2.679   2.298   7.711
 7699SOL    HW227945   2.536   2.293   7.761
 7700SOL     OW27946   3.522   2.440   8.633
 7700SOL    HW127947   3.528   2.370   8.697
 7700SOL    HW227948   3.608   2.441   8.591
 7701SOL     OW27949   2.121   3.407   9.204
 7701SOL    HW127950   2.076   3.461   9.269
 7701SOL    HW227951   2.106   3.317   9.232
 7702SOL     OW27952   2.572   2.286   8.737
 7702SOL    HW127953   2.587   2.212   8.678
 7702SOL    HW227954   2.477   2.286   8.752
 7703SOL     OW27955   2.757   3.626   8.807
 7703SOL    HW127956   2.760   3.544   8.757
 7703SOL    HW227957   2.710   3.604   8.887
 7704SOL     OW27958   2.268   2.273   7.584
 7704SOL    HW127959   2.215   2.352   7.577
 7704SOL    HW227960   2.216   2.205   7.541
 7705SOL     OW27961   2.047   3.003   8.927
 7705SOL    HW127962   2.036   2.967   9.015
 7705SOL    HW227963   2.041   2.927   8.869
 7706SOL     OW27964   3.224   2.980   8.551
 7706SOL    HW127965   3.198   2.888   8.545
 7706SOL    HW227966   3.183   3.011   8.632
 7707SOL     OW27967   3.215   2.725   7.763
 7707SOL    HW127968   3.183   2.644   7.801
 7707SOL    HW227969   3.191   2.720   7.670
 7708SOL     OW27970   3.592   3.603   8.573
 7708SOL    HW127971   3.681   3.607   8.536
 7708SOL    HW227972   3.571   3.510   8.573
 7709SOL     OW27973   3.126   3.612   8.544
 7709SOL    HW127974   3.137   3.586   8.453
 7709SOL    HW227975   3.131   3.531   8.593
 7710SOL     OW27976   1.983   3.087   8.463
 7710SOL    HW127977   1.974   3.108   8.556
 7710SOL    HW227978   1.892   3.083   8.431
 7711SOL     OW27979   2.642   3.584   9.078
 7711SOL    HW127980   2.570   3.635   9.114
 7711SOL    HW227981   2.611   3.493   9.083
 7712SOL     OW27982   3.622   2.030   7.940
 7712SOL    HW127983   3.679   2.014   7.865
 7712SOL    HW227984   3.587   1.944   7.963
 7713SOL     OW27985   3.284   3.465   7.975
 7713SOL    HW127986   3.239   3.392   7.932
 7713SOL    HW227987   3.215   3.529   7.993
 7714SOL     OW27988   1.900   3.758   9.252
 7714SOL    HW127989   1.817   3.711   9.260
 7714SOL    HW227990   1.959   3.711   9.310
 7715SOL     OW27991   3.171   2.836   8.211
 7715SOL    HW127992   3.227   2.759   8.205
 7715SOL    HW227993   3.178   2.877   8.125
 7716SOL     OW27994   2.670   3.179   8.852
 7716SOL    HW127995   2.640   3.205   8.939
 7716SOL    HW227996   2.590   3.179   8.799
 7717SOL     OW27997   2.535   3.507   7.596
 7717SOL    HW127998   2.553   3.511   7.502
 7717SOL    HW227999   2.484   3.427   7.608
 7718SOL     OW28000   3.563   3.711   8.836
 7718SOL    HW128001   3.560   3.663   8.754
 7718SOL    HW228002   3.474   3.747   8.846
 7719SOL     OW28003   3.605   1.961   8.390
 7719SOL    HW128004   3.559   1.877   8.386
 7719SOL    HW228005   3.538   2.026   8.370
 7720SOL     OW28006   2.075   2.174   8.161
 7720SOL    HW128007   2.009   2.228   8.117
 7720SOL    HW228008   2.028   2.133   8.234
 7721SOL     OW28009   2.742   2.882   8.827
 7721SOL    HW128010   2.663   2.831   8.844
 7721SOL    HW228011   2.718   2.972   8.852
 7722SOL     OW28012   3.337   3.542   7.481
 7722SOL    HW128013   3.249   3.505   7.472
 7722SOL    HW228014   3.373   3.540   7.392
 7723SOL     OW28015   2.192   3.237   8.959
 7723SOL    HW128016   2.134   3.288   9.015
 7723SOL    HW228017   2.144   3.156   8.942
 7724SOL     OW28018   3.505   3.171   8.758
 7724SOL    HW128019   3.554   3.150   8.838
 7724SOL    HW228020   3.428   3.220   8.789
 7725SOL     OW28021   2.872   2.914   8.195
 7725SOL    HW128022   2.791   2.892   8.240
 7725SOL    HW228023   2.861   2.879   8.107
 7726SOL     OW28024   3.567   2.210   8.803
 7726SOL    HW128025   3.627   2.158   8.749
 7726SOL    HW228026   3.496   2.150   8.826
 7727SOL     OW28027   2.133   3.216   7.770
 7727SOL    HW128028   2.058   3.190   7.717
 7727SOL    HW228029   2.164   3.134   7.810
 7728SOL     OW28030   2.009   2.903   9.186
 7728SOL    HW128031   1.922   2.889   9.223
 7728SOL    HW228032   2.057   2.822   9.207
 7729SOL     OW28033   2.535   2.025   8.944
 7729SOL    HW128034   2.623   2.021   8.908
 7729SOL    HW228035   2.545   2.072   9.027
 7730SOL     OW28036   1.948   2.233   7.546
 7730SOL    HW128037   1.870   2.271   7.505
 7730SOL    HW228038   1.990   2.184   7.475
 7731SOL     OW28039   3.251   2.764   8.826
 7731SOL    HW128040   3.220   2.674   8.836
 7731SOL    HW228041   3.328   2.756   8.769
 7732SOL     OW28042   1.932   2.035   7.743
 7732SOL    HW128043   1.928   2.106   7.679
 7732SOL    HW228044   2.022   2.005   7.740
 7733SOL     OW28045   3.028   3.204   7.593
 7733SOL    HW128046   3.033   3.109   7.597
 7733SOL    HW228047   3.057   3.233   7.679
 7734SOL     OW28048   2.524   2.721   8.894
 7734SOL    HW128049   2.439   2.699   8.930
 7734SOL    HW228050   2.573   2.639   8.894
 7735SOL     OW28051   3.410   3.700   8.385
 7735SOL    HW128052   3.365   3.624   8.348
 7735SOL    HW228053   3.466   3.663   8.454
 7736SOL     OW28054   2.609   2.406   9.180
 7736SOL    HW128055   2.528   2.436   9.221
 7736SOL    HW228056   2.607   2.311   9.188
 7737SOL     OW28057   3.369   3.018   9.085
 7737SOL    HW128058   3.365   3.052   9.174
 7737SOL    HW228059   3.313   2.940   9.087
 7738SOL     OW28060   2.232   3.604   9.040
 7738SOL    HW128061   2.153   3.652   9.019
 7738SOL    HW228062   2.202   3.528   9.090
 7739SOL     OW28063   3.481   2.712   8.680
 7739SOL    HW128064   3.490   2.617   8.673
 7739SOL    HW228065   3.492   2.745   8.591
 7740SOL     OW28066   3.089   2.228   7.917
 7740SOL    HW128067   3.147   2.154   7.902
 7740SOL    HW228068   3.005   2.188   7.942
 7741SOL     OW28069   2.500   2.581   8.099
 7741SOL    HW128070   2.510   2.676   8.099
 7741SOL    HW228071   2.417   2.566   8.052
 7742SOL     OW28072   3.599   2.234   9.088
 7742SOL    HW128073   3.602   2.232   8.992
 7742SOL    HW228074   3.535   2.166   9.111
 7743SOL     OW28075   3.563   2.843   8.911
 7743SOL    HW128076   3.493   2.908   8.920
 7743SOL    HW228077   3.542   2.796   8.830
 7744SOL     OW28078   2.680   3.224   7.531
 7744SOL    HW128079   2.691   3.197   7.622
 7744SOL    HW228080   2.585   3.224   7.518
 7745SOL     OW28081   2.624   3.665   8.307
 7745SOL    HW128082   2.566   3.741   8.309
 7745SOL    HW228083   2.620   3.630   8.396
 7746SOL     OW28084   2.671   2.835   8.355
 7746SOL    HW128085   2.659   2.751   8.400
 7746SOL    HW228086   2.654   2.901   8.423
 7747SOL     OW28087   3.036   2.928   7.544
 7747SOL    HW128088   2.943   2.908   7.552
 7747SOL    HW228089   3.078   2.844   7.528
 7748SOL     OW28090   3.696   3.417   8.282
 7748SOL    HW128091   3.602   3.406   8.268
 7748SOL    HW228092   3.719   3.348   8.344
 7749SOL     OW28093   2.076   3.149   9.303
 7749SOL    HW128094   2.049   3.064   9.268
 7749SOL    HW228095   2.011   3.168   9.371
 7750SOL     OW28096   1.891   3.044   8.147
 7750SOL    HW128097   1.835   3.018   8.220
 7750SOL    HW228098   1.910   2.961   8.102
 7751SOL     OW28099   2.576   3.313   9.105
 7751SOL    HW128100   2.487   3.287   9.125
 7751SOL    HW228101   2.630   3.265   9.169
 7752SOL     OW28102   3.707   2.038   8.640
 7752SOL    HW128103   3.772   1.973   8.668
 7752SOL    HW228104   3.657   1.994   8.571
 7753SOL     OW28105   2.293   2.272   7.990
 7753SOL    HW128106   2.333   2.215   7.925
 7753SOL    HW228107   2.227   2.218   8.033
 7754SOL     OW28108   3.527   3.340   8.539
 7754SOL    HW128109   3.452   3.304   8.491
 7754SOL    HW228110   3.535   3.284   8.617
 7755SOL     OW28111   2.693   3.452   8.133
 7755SOL    HW128112   2.654   3.529   8.175
 7755SOL    HW228113   2.627   3.384   8.141
 7756SOL     OW28114   3.216   2.083   8.540
 7756SOL    HW128115   3.192   1.992   8.558
 7756SOL    HW228116   3.186   2.131   8.617
 7757SOL     OW28117   2.709   3.143   7.786
 7757SOL    HW128118   2.667   3.060   7.806
 7757SOL    HW228119   2.735   3.178   7.871
 7758SOL     OW28120   2.491   3.485   8.624
 7758SOL    HW128121   2.459   3.541   8.694
 7758SOL    HW228122   2.582   3.465   8.649
 7759SOL     OW28123   3.221   1.925   7.610
 7759SOL    HW128124   3.259   1.848   7.567
 7759SOL    HW228125   3.129   1.902   7.622
 7760SOL     OW28126   3.205   2.367   8.132
 7760SOL    HW128127   3.154   2.328   8.061
 7760SOL    HW228128   3.166   2.332   8.212
 7761SOL     OW28129   3.373   2.084   8.319
 7761SOL    HW128130   3.319   2.095   8.397
 7761SOL    HW228131   3.353   1.995   8.288
 7762SOL     OW28132   1.973   2.895   7.734
 7762SOL    HW128133   2.042   2.859   7.678
 7762SOL    HW228134   1.922   2.819   7.761
 7763SOL     OW28135   2.788   3.565   7.747
 7763SOL    HW128136   2.706   3.537   7.707
 7763SOL    HW228137   2.762   3.624   7.818
 7764SOL     OW28138   3.612   2.490   9.515
 7764SOL    HW128139   3.594   2.476   9.422
 7764SOL    HW228140   3.573   2.414   9.559
 7765SOL     OW28141   2.174   3.680   9.703
 7765SOL    HW128142   2.156   3.726   9.786
 7765SOL    HW228143   2.098   3.624   9.690
 7766SOL     OW28144   2.015   3.380   9.898
 7766SOL    HW128145   1.964   3.405   9.974
 7766SOL    HW228146   2.027   3.285   9.907
 7767SOL     OW28147   2.497   2.828   9.376
 7767SOL    HW128148   2.425   2.767   9.365
 7767SOL    HW228149   2.487   2.863   9.464
 7768SOL     OW28150   2.016   2.587   9.916
 7768SOL    HW128151   1.955   2.574   9.843
 7768SOL    HW228152   1.972   2.651   9.972
 7769SOL     OW28153   3.691   3.617   9.600
 7769SOL    HW128154   3.759   3.595   9.664
 7769SOL    HW228155   3.710   3.707   9.575
 7770SOL     OW28156   1.982   3.540   9.410
 7770SOL    HW128157   1.890   3.532   9.381
 7770SOL    HW228158   1.979   3.519   9.503
 7771SOL     OW28159   3.565   2.797   9.907
 7771SOL    HW128160   3.631   2.791   9.976
 7771SOL    HW228161   3.601   2.747   9.834
 7772SOL     OW28162   3.479   3.002   9.751
 7772SOL    HW128163   3.554   3.062   9.754
 7772SOL    HW228164   3.502   2.932   9.812
 7773SOL     OW28165   2.548   3.221   9.886
 7773SOL    HW128166   2.489   3.157   9.925
 7773SOL    HW228167   2.498   3.260   9.814
 7774SOL     OW28168   2.726   1.975   9.842
 7774SOL    HW128169   2.743   1.971   9.936
 7774SOL    HW228170   2.631   1.969   9.834
 7775SOL     OW28171   3.413   2.863   9.520
 7775SOL    HW128172   3.360   2.790   9.551
 7775SOL    HW228173   3.435   2.912   9.600
 7776SOL     OW28174   2.443   2.585   9.597
 7776SOL    HW128175   2.391   2.604   9.519
 7776SOL    HW228176   2.382   2.593   9.670
 7777SOL     OW28177   3.419   3.597   9.525
 7777SOL    HW128178   3.508   3.598   9.561
 7777SOL    HW228179   3.427   3.546   9.444
 7778SOL     OW28180   2.925   2.546   9.729
 7778SOL    HW128181   2.931   2.507   9.816
 7778SOL    HW228182   2.838   2.520   9.697
 7779SOL     OW28183   1.864   2.758   0.082
 7779SOL    HW128184   1.918   2.807   0.144
 7779SOL    HW228185   1.781   2.745   0.129
 7780SOL     OW28186   2.766   2.084   9.480
 7780SOL    HW128187   2.780   2.157   9.420
 7780SOL    HW228188   2.685   2.043   9.450
 7781SOL     OW28189   3.255   3.092   9.893
 7781SOL    HW128190   3.326   3.058   9.839
 7781SOL    HW228191   3.192   3.130   9.831
 7782SOL     OW28192   2.890   3.334   9.824
 7782SOL    HW128193   2.829   3.390   9.778
 7782SOL    HW228194   2.841   3.301   9.899
 7783SOL     OW28195   2.174   3.592   0.117
 7783SOL    HW128196   2.117   3.520   0.092
 7783SOL    HW228197   2.160   3.602   0.211
 7784SOL     OW28198   2.158   2.767   9.543
 7784SOL    HW128199   2.190   2.735   9.458
 7784SOL    HW228200   2.088   2.706   9.567
 7785SOL     OW28201   2.963   3.577   9.525
 7785SOL    HW128202   2.882   3.559   9.573
 7785SOL    HW228203   3.032   3.543   9.581
 7786SOL     OW28204   3.550   3.246   9.383
 7786SOL    HW128205   3.508   3.326   9.353
 7786SOL    HW228206   3.482   3.179   9.376
 7787SOL     OW28207   2.435   3.626   9.634
 7787SOL    HW128208   2.348   3.661   9.653
 7787SOL    HW228209   2.435   3.540   9.674
 7788SOL     OW28210   3.276   2.022   9.753
 7788SOL    HW128211   3.276   1.982   9.666
 7788SOL    HW228212   3.368   2.039   9.771
 7789SOL     OW28213   2.288   2.544   9.829
 7789SOL    HW128214   2.302   2.454   9.858
 7789SOL    HW228215   2.200   2.566   9.859
 7790SOL     OW28216   2.538   1.934   9.381
 7790SOL    HW128217   2.564   1.846   9.405
 7790SOL    HW228218   2.456   1.923   9.332
 7791SOL     OW28219   2.454   1.977   9.812
 7791SOL    HW128220   2.374   1.997   9.860
 7791SOL    HW228221   2.450   2.033   9.735
 7792SOL     OW28222   3.341   3.070   9.353
 7792SOL    HW128223   3.363   2.994   9.406
 7792SOL    HW228224   3.252   3.093   9.380
 7793SOL     OW28225   2.170   1.907   9.499
 7793SOL    HW128226   2.219   1.900   9.417
 7793SOL    HW228227   2.222   1.857   9.562
 7794SOL     OW28228   2.359   3.060   0.004
 7794SOL    HW128229   2.332   3.001   0.074
 7794SOL    HW228230   2.316   3.025   9.926
 7795SOL     OW28231   3.167   3.694   9.875
 7795SOL    HW128232   3.175   3.752   9.950
 7795SOL    HW228233   3.129   3.613   9.911
 7796SOL     OW28234   2.870   2.323   9.332
 7796SOL    HW128235   2.794   2.381   9.334
 7796SOL    HW228236   2.916   2.342   9.414
 7797SOL     OW28237   2.632   2.346   9.948
 7797SOL    HW128238   2.615   2.440   9.943
 7797SOL    HW228239   2.546   2.305   9.935
 7798SOL     OW28240   3.702   2.675   9.702
 7798SOL    HW128241   3.746   2.613   9.760
 7798SOL    HW228242   3.659   2.619   9.637
 7799SOL     OW28243   2.328   3.294   9.446
 7799SOL    HW128244   2.246   3.298   9.495
 7799SOL    HW228245   2.308   3.239   9.371
 7800SOL     OW28246   3.225   2.392   9.370
 7800SOL    HW128247   3.153   2.384   9.433
 7800SOL    HW228248   3.285   2.322   9.394
 7801SOL     OW28249   2.449   2.115   9.579
 7801SOL    HW128250   2.465   2.054   9.507
 7801SOL    HW228251   2.407   2.190   9.538
 7802SOL     OW28252   2.525   2.938   9.633
 7802SOL    HW128253   2.450   2.934   9.693
 7802SOL    HW228254   2.588   2.876   9.670
 7803SOL     OW28255   2.261   2.948   9.759
 7803SOL    HW128256   2.182   2.997   9.782
 7803SOL    HW228257   2.230   2.883   9.696
 7804SOL     OW28258   3.104   3.232   9.687
 7804SOL    HW128259   3.146   3.318   9.682
 7804SOL    HW228260   3.022   3.248   9.733
 7805SOL     OW28261   3.357   2.458   9.792
 7805SOL    HW128262   3.320   2.452   9.880
 7805SOL    HW228263   3.306   2.527   9.750
 7806SOL     OW28264   3.028   2.353   9.559
 7806SOL    HW128265   3.028   2.277   9.617
 7806SOL    HW228266   2.999   2.425   9.616
 7807SOL     OW28267   2.223   2.035   9.948
 7807SOL    HW128268   2.134   2.065   9.965
 7807SOL    HW228269   2.227   1.947   9.986
 7808SOL     OW28270   3.493   2.272   9.646
 7808SOL    HW128271   3.525   2.204   9.705
 7808SOL    HW228272   3.446   2.334   9.702
 7809SOL     OW28273   3.366   2.162   9.428
 7809SOL    HW128274   3.323   2.084   9.461
 7809SOL    HW228275   3.418   2.194   9.502
 7810SOL     OW28276   3.183   2.667   9.367
 7810SOL    HW128277   3.203   2.574   9.361
 7810SOL    HW228278   3.212   2.703   9.282
 7811SOL     OW28279   1.895   3.207   9.528
 7811SOL    HW128280   1.808   3.235   9.556
 7811SOL    HW228281   1.905   3.119   9.564
 7812SOL     OW28282   2.685   2.455   9.636
 7812SOL    HW128283   2.650   2.388   9.694
 7812SOL    HW228284   2.611   2.513   9.619
 7813SOL     OW28285   2.357   2.351   9.471
 7813SOL    HW128286   2.396   2.395   9.546
 7813SOL    HW228287   2.321   2.422   9.417
 7814SOL     OW28288   3.200   2.652   9.648
 7814SOL    HW128289   3.111   2.643   9.683
 7814SOL    HW228290   3.188   2.658   9.553
 7815SOL     OW28291   3.568   2.038   9.788
 7815SOL    HW128292   3.642   2.017   9.731
 7815SOL    HW228293   3.560   1.962   9.846
 7816SOL     OW28294   3.194   3.500   9.662
 7816SOL    HW128295   3.278   3.523   9.621
 7816SOL    HW228296   3.192   3.551   9.743
 7817SOL     OW28297   2.534   3.471   9.429
 7817SOL    HW128298   2.496   3.536   9.487
 7817SOL    HW228299   2.467   3.404   9.419
 7818SOL     OW28300   3.136   3.399   9.316
 7818SOL    HW128301   3.129   3.344   9.394
 7818SOL    HW228302   3.087   3.352   9.248
 7819SOL     OW28303   2.774   2.787   9.639
 7819SOL    HW128304   2.772   2.762   9.546
 7819SOL    HW228305   2.821   2.716   9.682
 7820SOL     OW28306   3.403   3.462   9.284
 7820SOL    HW128307   3.310   3.439   9.288
 7820SOL    HW228308   3.420   3.480   9.192
 7821SOL     OW28309   2.397   3.362   9.704
 7821SOL    HW128310   2.404   3.320   9.619
 7821SOL    HW228311   2.303   3.357   9.725
 7822SOL     OW28312   2.120   3.324   9.640
 7822SOL    HW128313   2.045   3.285   9.595
 7822SOL    HW228314   2.087   3.347   9.727
 7823SOL     OW28315   1.948   1.990   9.657
 7823SOL    HW128316   1.962   2.083   9.678
 7823SOL    HW228317   2.025   1.965   9.607
 7824SOL     OW28318   3.083   3.133   9.426
 7824SOL    HW128319   3.037   3.050   9.414
 7824SOL    HW228320   3.075   3.153   9.519
 7825SOL     OW28321   3.023   2.141   9.750
 7825SOL    HW128322   3.112   2.110   9.762
 7825SOL    HW228323   3.005   2.193   9.828
 7826SOL     OW28324   2.553   2.602   9.919
 7826SOL    HW128325   2.567   2.684   9.966
 7826SOL    HW228326   2.462   2.605   9.890
 7827SOL     OW28327   2.748   3.309   9.368
 7827SOL    HW128328   2.748   3.240   9.435
 7827SOL    HW228329   2.675   3.366   9.392
 7828SOL     OW28330   2.998   2.880   9.353
 7828SOL    HW128331   2.909   2.845   9.354
 7828SOL    HW228332   3.054   2.805   9.373
 7829SOL     OW28333   2.049   3.098   9.900
 7829SOL    HW128334   2.029   3.095   9.993
 7829SOL    HW228335   1.974   3.057   9.858
 7830SOL     OW28336   2.355   2.286   9.938
 7830SOL    HW128337   2.308   2.203   9.927
 7830SOL    HW228338   2.338   2.311   0.028
 7831SOL     OW28339   2.706   3.147   9.588
 7831SOL    HW128340   2.642   3.076   9.586
 7831SOL    HW228341   2.734   3.151   9.680
 7832SOL     OW28342   3.240   1.923   9.498
 7832SOL    HW128343   3.285   1.850   9.456
 7832SOL    HW228344   3.149   1.892   9.507
 7833SOL     OW28345   1.967   2.958   9.621
 7833SOL    HW128346   2.042   2.916   9.577
 7833SOL    HW228347   1.905   2.886   9.636
 7834SOL     OW28348   2.741   3.520   9.681
 7834SOL    HW128349   2.662   3.496   9.632
 7834SOL    HW228350   2.711   3.589   9.741
 7835SOL     OW28351   2.052   4.284   0.100
 7835SOL    HW128352   1.968   4.280   0.146
 7835SOL    HW228353   2.029   4.309   0.010
 7836SOL     OW28354   2.097   3.976   0.969
 7836SOL    HW128355   2.068   3.900   1.018
 7836SOL    HW228356   2.016   4.022   0.946
 7837SOL     OW28357   2.454   5.010   1.234
 7837SOL    HW128358   2.372   4.982   1.194
 7837SOL    HW228359   2.445   5.105   1.242
 7838SOL     OW28360   3.458   5.247   0.709
 7838SOL    HW128361   3.400   5.208   0.774
 7838SOL    HW228362   3.403   5.262   0.633
 7839SOL     OW28363   3.037   4.405   0.699
 7839SOL    HW128364   3.079   4.491   0.687
 7839SOL    HW228365   2.986   4.415   0.779
 7840SOL     OW28366   3.624   4.249   0.214
 7840SOL    HW128367   3.552   4.271   0.156
 7840SOL    HW228368   3.589   4.183   0.273
 7841SOL     OW28369   2.683   4.912   1.108
 7841SOL    HW128370   2.603   4.913   1.161
 7841SOL    HW228371   2.674   4.987   1.049
 7842SOL     OW28372   2.726   4.467   1.867
 7842SOL    HW128373   2.660   4.526   1.904
 7842SOL    HW228374   2.675   4.404   1.816
 7843SOL     OW28375   2.566   4.739   0.656
 7843SOL    HW128376   2.608   4.738   0.742
 7843SOL    HW228377   2.485   4.788   0.670
 7844SOL     OW28378   2.553   4.885   1.814
 7844SOL    HW128379   2.586   4.974   1.816
 7844SOL    HW228380   2.468   4.892   1.769
 7845SOL     OW28381   2.209   5.161   1.102
 7845SOL    HW128382   2.137   5.107   1.068
 7845SOL    HW228383   2.241   5.209   1.026
 7846SOL     OW28384   3.309   5.193   1.386
 7846SOL    HW128385   3.364   5.271   1.387
 7846SOL    HW228386   3.231   5.217   1.437
 7847SOL     OW28387   2.328   4.082   1.517
 7847SOL    HW128388   2.324   4.026   1.439
 7847SOL    HW228389   2.244   4.070   1.560
 7848SOL     OW28390   3.441   4.171   0.636
 7848SOL    HW128391   3.348   4.150   0.633
 7848SOL    HW228392   3.445   4.258   0.674
 7849SOL     OW28393   2.097   5.447   0.488
 7849SOL    HW128394   2.175   5.424   0.438
 7849SOL    HW228395   2.073   5.366   0.533
 7850SOL     OW28396   3.048   4.904   1.741
 7850SOL    HW128397   3.053   4.970   1.810
 7850SOL    HW228398   2.958   4.873   1.743
 7851SOL     OW28399   2.024   5.213   0.615
 7851SOL    HW128400   1.969   5.249   0.686
 7851SOL    HW228401   2.016   5.118   0.625
 7852SOL     OW28402   2.135   4.835   0.863
 7852SOL    HW128403   2.093   4.749   0.866
 7852SOL    HW228404   2.093   4.885   0.933
 7853SOL     OW28405   2.462   5.506   1.456
 7853SOL    HW128406   2.373   5.497   1.490
 7853SOL    HW228407   2.480   5.600   1.462
 7854SOL     OW28408   3.431   3.882   1.432
 7854SOL    HW128409   3.403   3.899   1.342
 7854SOL    HW228410   3.350   3.880   1.483
 7855SOL     OW28411   1.964   4.356   0.555
 7855SOL    HW128412   1.945   4.262   0.547
 7855SOL    HW228413   1.906   4.386   0.625
 7856SOL     OW28414   3.741   5.449   0.303
 7856SOL    HW128415   3.810   5.431   0.367
 7856SOL    HW228416   3.754   5.541   0.279
 7857SOL     OW28417   1.856   5.258   0.104
 7857SOL    HW128418   1.867   5.179   0.157
 7857SOL    HW228419   1.875   5.330   0.165
 7858SOL     OW28420   3.549   4.657   0.656
 7858SOL    HW128421   3.545   4.585   0.594
 7858SOL    HW228422   3.528   4.735   0.604
 7859SOL     OW28423   3.500   4.845   0.449
 7859SOL    HW128424   3.581   4.820   0.404
 7859SOL    HW228425   3.527   4.912   0.511
 7860SOL     OW28426   1.965   4.495   1.579
 7860SOL    HW128427   1.927   4.469   1.663
 7860SOL    HW228428   1.905   4.562   1.545
 7861SOL     OW28429   2.449   5.123   0.754
 7861SOL    HW128430   2.408   5.037   0.743
 7861SOL    HW228431   2.462   5.154   0.664
 7862SOL     OW28432   3.142   4.942   1.398
 7862SOL    HW128433   3.153   4.896   1.315
 7862SOL    HW228434   3.207   5.013   1.395
 7863SOL     OW28435   2.710   3.775   0.518
 7863SOL    HW128436   2.757   3.846   0.475
 7863SOL    HW228437   2.619   3.805   0.521
 7864SOL     OW28438   2.094   4.720   1.314
 7864SOL    HW128439   2.168   4.660   1.306
 7864SOL    HW228440   2.027   4.683   1.256
 7865SOL     OW28441   3.363   4.756   0.224
 7865SOL    HW128442   3.309   4.681   0.248
 7865SOL    HW228443   3.406   4.782   0.305
 7866SOL     OW28444   3.126   5.622   1.636
 7866SOL    HW128445   3.088   5.674   1.566
 7866SOL    HW228446   3.107   5.531   1.611
 7867SOL     OW28447   2.170   4.008   1.827
 7867SOL    HW128448   2.136   4.088   1.788
 7867SOL    HW228449   2.092   3.955   1.844
 7868SOL     OW28450   3.276   5.147   0.899
 7868SOL    HW128451   3.220   5.160   0.976
 7868SOL    HW228452   3.270   5.054   0.879
 7869SOL     OW28453   3.531   5.519   0.579
 7869SOL    HW128454   3.498   5.493   0.493
 7869SOL    HW228455   3.529   5.438   0.630
 7870SOL     OW28456   2.481   4.443   0.376
 7870SOL    HW128457   2.466   4.460   0.283
 7870SOL    HW228458   2.394   4.439   0.415
 7871SOL     OW28459   3.151   4.064   0.924
 7871SOL    HW128460   3.060   4.052   0.952
 7871SOL    HW228461   3.187   3.975   0.921
 7872SOL     OW28462   3.466   5.410   0.329
 7872SOL    HW128463   3.560   5.415   0.314
 7872SOL    HW228464   3.428   5.402   0.242
 7873SOL     OW28465   2.666   4.317   1.458
 7873SOL    HW128466   2.638   4.280   1.542
 7873SOL    HW228467   2.631   4.258   1.392
 7874SOL     OW28468   3.320   4.213   1.661
 7874SOL    HW128469   3.300   4.242   1.750
 7874SOL    HW228470   3.390   4.149   1.672
 7875SOL     OW28471   2.955   4.654   1.518
 7875SOL    HW128472   2.957   4.559   1.503
 7875SOL    HW228473   2.874   4.683   1.477
 7876SOL     OW28474   2.859   4.152   1.199
 7876SOL    HW128475   2.765   4.163   1.214
 7876SOL    HW228476   2.865   4.096   1.122
 7877SOL     OW28477   2.985   4.402   0.420
 7877SOL    HW128478   2.989   4.397   0.515
 7877SOL    HW228479   2.893   4.388   0.399
 7878SOL     OW28480   1.987   4.598   0.821
 7878SOL    HW128481   1.944   4.512   0.827
 7878SOL    HW228482   1.929   4.650   0.765
 7879SOL     OW28483   1.945   5.546   1.540
 7879SOL    HW128484   1.950   5.506   1.627
 7879SOL    HW228485   1.906   5.632   1.555
 7880SOL     OW28486   2.735   4.074   0.192
 7880SOL    HW128487   2.715   4.129   0.116
 7880SOL    HW228488   2.726   3.984   0.159
 7881SOL     OW28489   3.600   4.290   1.846
 7881SOL    HW128490   3.560   4.364   1.800
 7881SOL    HW228491   3.567   4.213   1.800
 7882SOL     OW28492   3.250   4.888   0.567
 7882SOL    HW128493   3.328   4.876   0.513
 7882SOL    HW228494   3.196   4.949   0.517
 7883SOL     OW28495   2.394   3.954   0.887
 7883SOL    HW128496   2.426   3.957   0.977
 7883SOL    HW228497   2.307   3.915   0.894
 7884SOL     OW28498   2.872   5.202   0.458
 7884SOL    HW128499   2.840   5.268   0.396
 7884SOL    HW228500   2.824   5.220   0.539
 7885SOL     OW28501   3.658   4.750   0.895
 7885SOL    HW128502   3.623   4.733   0.807
 7885SOL    HW228503   3.580   4.763   0.949
 7886SOL     OW28504   3.073   5.259   1.497
 7886SOL    HW128505   3.026   5.274   1.579
 7886SOL    HW228506   3.007   5.227   1.437
 7887SOL     OW28507   3.401   4.422   0.737
 7887SOL    HW128508   3.352   4.397   0.815
 7887SOL    HW228509   3.441   4.506   0.760
 7888SOL     OW28510   2.319   4.967   1.688
 7888SOL    HW128511   2.268   4.926   1.618
 7888SOL    HW228512   2.253   4.997   1.751
 7889SOL     OW28513   2.976   5.479   0.199
 7889SOL    HW128514   2.898   5.436   0.234
 7889SOL    HW228515   3.014   5.414   0.139
 7890SOL     OW28516   2.048   3.991   1.498
 7890SOL    HW128517   2.001   4.068   1.467
 7890SOL    HW228518   1.979   3.930   1.525
 7891SOL     OW28519   3.522   5.124   0.088
 7891SOL    HW128520   3.474   5.207   0.084
 7891SOL    HW228521   3.457   5.058   0.063
 7892SOL     OW28522   2.343   5.427   0.356
 7892SOL    HW128523   2.382   5.505   0.397
 7892SOL    HW228524   2.402   5.406   0.284
 7893SOL     OW28525   3.329   3.848   0.427
 7893SOL    HW128526   3.320   3.780   0.360
 7893SOL    HW228527   3.352   3.799   0.507
 7894SOL     OW28528   2.145   5.478   1.143
 7894SOL    HW128529   2.202   5.410   1.177
 7894SOL    HW228530   2.060   5.460   1.183
 7895SOL     OW28531   2.809   5.412   0.855
 7895SOL    HW128532   2.893   5.365   0.861
 7895SOL    HW228533   2.762   5.367   0.784
 7896SOL     OW28534   2.242   4.421   0.528
 7896SOL    HW128535   2.270   4.331   0.546
 7896SOL    HW228536   2.147   4.419   0.534
 7897SOL     OW28537   2.685   4.018   1.811
 7897SOL    HW128538   2.746   3.962   1.762
 7897SOL    HW228539   2.629   3.956   1.858
 7898SOL     OW28540   2.735   5.279   1.194
 7898SOL    HW128541   2.707   5.243   1.109
 7898SOL    HW228542   2.796   5.214   1.228
 7899SOL     OW28543   3.294   4.301   1.393
 7899SOL    HW128544   3.305   4.270   1.483
 7899SOL    HW228545   3.242   4.381   1.400
 7900SOL     OW28546   2.658   5.138   0.954
 7900SOL    HW128547   2.737   5.128   0.900
 7900SOL    HW228548   2.586   5.139   0.891
 7901SOL     OW28549   2.458   3.899   0.536
 7901SOL    HW128550   2.388   3.839   0.562
 7901SOL    HW228551   2.427   3.936   0.453
 7902SOL     OW28552   3.324   4.932   0.021
 7902SOL    HW128553   3.342   4.862   0.084
 7902SOL    HW228554   3.247   4.977   0.057
 7903SOL     OW28555   2.846   3.995   0.428
 7903SOL    HW128556   2.810   4.025   0.345
 7903SOL    HW228557   2.941   4.002   0.417
 7904SOL     OW28558   2.931   4.382   1.464
 7904SOL    HW128559   2.838   4.361   1.463
 7904SOL    HW228560   2.971   4.308   1.510
 7905SOL     OW28561   3.066   5.305   0.781
 7905SOL    HW128562   3.091   5.376   0.721
 7905SOL    HW228563   3.149   5.262   0.801
 7906SOL     OW28564   2.328   4.883   0.674
 7906SOL    HW128565   2.262   4.863   0.740
 7906SOL    HW228566   2.288   4.858   0.591
 7907SOL     OW28567   3.132   5.531   0.629
 7907SOL    HW128568   3.166   5.587   0.559
 7907SOL    HW228569   3.052   5.574   0.657
 7908SOL     OW28570   2.968   4.293   9.971
 7908SOL    HW128571   2.874   4.277   9.978
 7908SOL    HW228572   3.002   4.271   0.058
 7909SOL     OW28573   2.015   4.266   1.436
 7909SOL    HW128574   1.990   4.274   1.344
 7909SOL    HW228575   1.996   4.352   1.473
 7910SOL     OW28576   2.461   3.938   1.161
 7910SOL    HW128577   2.502   3.852   1.169
 7910SOL    HW228578   2.379   3.931   1.210
 7911SOL     OW28579   2.675   4.139   0.593
 7911SOL    HW128580   2.679   4.218   0.540
 7911SOL    HW228581   2.738   4.080   0.552
 7912SOL     OW28582   2.822   3.836   0.772
 7912SOL    HW128583   2.792   3.830   0.681
 7912SOL    HW228584   2.814   3.747   0.806
 7913SOL     OW28585   3.255   4.874   0.847
 7913SOL    HW128586   3.189   4.805   0.859
 7913SOL    HW228587   3.263   4.883   0.752
 7914SOL     OW28588   3.294   4.309   0.976
 7914SOL    HW128589   3.232   4.241   0.950
 7914SOL    HW228590   3.351   4.266   1.040
 7915SOL     OW28591   3.720   4.509   0.357
 7915SOL    HW128592   3.774   4.452   0.412
 7915SOL    HW228593   3.631   4.476   0.369
 7916SOL     OW28594   2.359   5.090   0.234
 7916SOL    HW128595   2.275   5.120   0.270
 7916SOL    HW228596   2.343   4.999   0.209
 7917SOL     OW28597   3.594   5.005   0.641
 7917SOL    HW128598   3.688   5.004   0.655
 7917SOL    HW228599   3.568   5.097   0.656
 7918SOL     OW28600   3.304   4.279   0.047
 7918SOL    HW128601   3.229   4.278   0.107
 7918SOL    HW228602   3.339   4.190   0.050
 7919SOL     OW28603   2.314   4.037   0.325
 7919SOL    HW128604   2.232   3.996   0.299
 7919SOL    HW228605   2.333   4.101   0.256
 7920SOL     OW28606   3.605   4.933   1.582
 7920SOL    HW128607   3.691   4.911   1.546
 7920SOL    HW228608   3.607   5.028   1.593
 7921SOL     OW28609   2.896   5.101   1.351
 7921SOL    HW128610   2.812   5.068   1.381
 7921SOL    HW228611   2.957   5.029   1.367
 7922SOL     OW28612   3.489   5.363   1.671
 7922SOL    HW128613   3.463   5.394   1.584
 7922SOL    HW228614   3.558   5.300   1.654
 7923SOL     OW28615   2.959   4.963   1.082
 7923SOL    HW128616   2.872   4.933   1.110
 7923SOL    HW228617   2.945   5.000   0.995
 7924SOL     OW28618   3.442   4.809   1.054
 7924SOL    HW128619   3.436   4.885   1.112
 7924SOL    HW228620   3.371   4.821   0.991
 7925SOL     OW28621   2.810   3.849   1.424
 7925SOL    HW128622   2.816   3.810   1.337
 7925SOL    HW228623   2.898   3.883   1.442
 7926SOL     OW28624   2.803   4.789   1.753
 7926SOL    HW128625   2.715   4.820   1.772
 7926SOL    HW228626   2.792   4.730   1.678
 7927SOL     OW28627   2.661   4.818   0.409
 7927SOL    HW128628   2.623   4.784   0.490
 7927SOL    HW228629   2.703   4.742   0.369
 7928SOL     OW28630   2.302   4.539   1.300
 7928SOL    HW128631   2.361   4.530   1.375
 7928SOL    HW228632   2.279   4.449   1.277
 7929SOL     OW28633   3.114   4.093   1.285
 7929SOL    HW128634   3.151   4.177   1.313
 7929SOL    HW228635   3.026   4.114   1.255
 7930SOL     OW28636   1.915   5.416   1.299
 7930SOL    HW128637   1.824   5.436   1.278
 7930SOL    HW228638   1.931   5.459   1.383
 7931SOL     OW28639   2.219   4.778   0.421
 7931SOL    HW128640   2.247   4.805   0.333
 7931SOL    HW228641   2.248   4.686   0.428
 7932SOL     OW28642   2.465   4.259   0.850
 7932SOL    HW128643   2.468   4.336   0.792
 7932SOL    HW228644   2.374   4.253   0.877
 7933SOL     OW28645   3.122   5.091   0.423
 7933SOL    HW128646   3.176   5.166   0.449
 7933SOL    HW228647   3.032   5.121   0.438
 7934SOL     OW28648   3.136   5.183   1.134
 7934SOL    HW128649   3.173   5.180   1.223
 7934SOL    HW228650   3.066   5.117   1.135
 7935SOL     OW28651   3.447   4.480   0.456
 7935SOL    HW128652   3.412   4.425   0.526
 7935SOL    HW228653   3.373   4.493   0.396
 7936SOL     OW28654   2.214   5.178   1.375
 7936SOL    HW128655   2.200   5.167   1.281
 7936SOL    HW228656   2.301   5.217   1.382
 7937SOL     OW28657   2.325   4.407   1.703
 7937SOL    HW128658   2.376   4.452   1.635
 7937SOL    HW228659   2.253   4.366   1.656
 7938SOL     OW28660   3.489   4.518   1.728
 7938SOL    HW128661   3.393   4.517   1.732
 7938SOL    HW228662   3.509   4.553   1.641
 7939SOL     OW28663   2.787   3.772   1.694
 7939SOL    HW128664   2.797   3.794   1.601
 7939SOL    HW228665   2.699   3.737   1.701
 7940SOL     OW28666   2.344   3.804   1.763
 7940SOL    HW128667   2.297   3.755   1.695
 7940SOL    HW228668   2.286   3.876   1.785
 7941SOL     OW28669   2.441   4.607   1.070
 7941SOL    HW128670   2.375   4.588   1.004
 7941SOL    HW228671   2.395   4.599   1.153
 7942SOL     OW28672   3.177   4.567   1.000
 7942SOL    HW128673   3.090   4.551   0.964
 7942SOL    HW228674   3.220   4.481   0.996
 7943SOL     OW28675   3.091   4.242   0.221
 7943SOL    HW128676   3.102   4.159   0.268
 7943SOL    HW228677   3.049   4.300   0.284
 7944SOL     OW28678   2.238   3.911   1.320
 7944SOL    HW128679   2.162   3.940   1.370
 7944SOL    HW228680   2.223   3.818   1.305
 7945SOL     OW28681   1.904   5.135   1.309
 7945SOL    HW128682   1.810   5.115   1.314
 7945SOL    HW228683   1.907   5.229   1.291
 7946SOL     OW28684   2.643   4.444   0.988
 7946SOL    HW128685   2.601   4.371   0.943
 7946SOL    HW228686   2.570   4.498   1.020
 7947SOL     OW28687   3.590   4.665   1.937
 7947SOL    HW128688   3.565   4.612   1.861
 7947SOL    HW228689   3.512   4.664   1.993
 7948SOL     OW28690   2.229   3.772   0.617
 7948SOL    HW128691   2.184   3.854   0.640
 7948SOL    HW228692   2.220   3.717   0.695
 7949SOL     OW28693   3.481   4.070   0.374
 7949SOL    HW128694   3.437   3.986   0.388
 7949SOL    HW228695   3.472   4.115   0.458
 7950SOL     OW28696   2.920   4.470   0.947
 7950SOL    HW128697   2.918   4.486   1.041
 7950SOL    HW228698   2.830   4.449   0.924
 7951SOL     OW28699   2.891   5.300   1.700
 7951SOL    HW128700   2.843   5.341   1.629
 7951SOL    HW228701   2.828   5.241   1.741
 7952SOL     OW28702   3.697   5.199   1.587
 7952SOL    HW128703   3.721   5.228   1.499
 7952SOL    HW228704   3.774   5.218   1.641
 7953SOL     OW28705   2.236   4.617   1.873
 7953SOL    HW128706   2.322   4.658   1.874
 7953SOL    HW228707   2.246   4.541   1.816
 7954SOL     OW28708   3.392   4.030   0.103
 7954SOL    HW128709   3.325   3.962   0.099
 7954SOL    HW228710   3.423   4.028   0.193
 7955SOL     OW28711   3.167   4.539   0.030
 7955SOL    HW128712   3.189   4.448   0.012
 7955SOL    HW228713   3.189   4.586   9.949
 7956SOL     OW28714   2.904   5.086   0.840
 7956SOL    HW128715   2.912   5.006   0.788
 7956SOL    HW228716   2.960   5.149   0.796
 7957SOL     OW28717   2.230   4.511   0.926
 7957SOL    HW128718   2.151   4.545   0.883
 7957SOL    HW228719   2.219   4.416   0.924
 7958SOL     OW28720   2.186   4.237   0.901
 7958SOL    HW128721   2.181   4.161   0.959
 7958SOL    HW228722   2.104   4.236   0.853
 7959SOL     OW28723   3.045   4.185   1.626
 7959SOL    HW128724   3.009   4.227   1.704
 7959SOL    HW228725   3.140   4.190   1.638
 7960SOL     OW28726   3.066   3.931   1.502
 7960SOL    HW128727   3.044   4.002   1.562
 7960SOL    HW228728   3.086   3.974   1.419
 7961SOL     OW28729   1.881   5.032   0.269
 7961SOL    HW128730   1.819   5.056   0.338
 7961SOL    HW228731   1.905   4.942   0.288
 7962SOL     OW28732   1.981   5.498   0.868
 7962SOL    HW128733   1.929   5.421   0.846
 7962SOL    HW228734   1.917   5.566   0.888
 7963SOL     OW28735   2.325   5.328   0.900
 7963SOL    HW128736   2.408   5.363   0.931
 7963SOL    HW228737   2.348   5.256   0.842
 7964SOL     OW28738   2.848   4.502   1.212
 7964SOL    HW128739   2.876   4.448   1.286
 7964SOL    HW228740   2.770   4.458   1.178
 7965SOL     OW28741   1.975   4.223   1.135
 7965SOL    HW128742   1.955   4.209   1.043
 7965SOL    HW228743   1.905   4.179   1.183
 7966SOL     OW28744   2.026   4.217   1.713
 7966SOL    HW128745   2.030   4.215   1.618
 7966SOL    HW228746   1.933   4.209   1.734
 7967SOL     OW28747   2.723   4.314   0.375
 7967SOL    HW128748   2.709   4.248   0.307
 7967SOL    HW228749   2.643   4.366   0.375
 7968SOL     OW28750   3.461   4.176   1.197
 7968SOL    HW128751   3.412   4.224   1.264
 7968SOL    HW228752   3.414   4.093   1.187
 7969SOL     OW28753   2.189   5.290   1.792
 7969SOL    HW128754   2.126   5.358   1.814
 7969SOL    HW228755   2.139   5.208   1.799
 7970SOL     OW28756   2.576   4.177   1.234
 7970SOL    HW128757   2.546   4.089   1.212
 7970SOL    HW228758   2.509   4.235   1.199
 7971SOL     OW28759   2.784   5.401   1.466
 7971SOL    HW128760   2.760   5.360   1.383
 7971SOL    HW228761   2.773   5.495   1.450
 7972SOL     OW28762   2.323   4.239   0.124
 7972SOL    HW128763   2.367   4.324   0.122
 7972SOL    HW228764   2.229   4.260   0.124
 7973SOL     OW28765   2.096   4.881   1.534
 7973SOL    HW128766   2.059   4.828   1.604
 7973SOL    HW228767   2.095   4.823   1.458
 7974SOL     OW28768   3.147   4.781   1.173
 7974SOL    HW128769   3.159   4.708   1.112
 7974SOL    HW228770   3.079   4.835   1.133
 7975SOL     OW28771   3.211   4.534   0.309
 7975SOL    HW128772   3.133   4.500   0.352
 7975SOL    HW228773   3.190   4.529   0.215
 7976SOL     OW28774   3.637   5.444   1.165
 7976SOL    HW128775   3.700   5.462   1.095
 7976SOL    HW228776   3.582   5.373   1.131
 7977SOL     OW28777   3.081   5.459   1.118
 7977SOL    HW128778   3.167   5.491   1.090
 7977SOL    HW228779   3.090   5.364   1.121
 7978SOL     OW28780   1.986   5.009   1.039
 7978SOL    HW128781   1.944   5.033   1.122
 7978SOL    HW228782   1.916   4.969   0.987
 7979SOL     OW28783   2.535   5.407   1.712
 7979SOL    HW128784   2.477   5.477   1.742
 7979SOL    HW228785   2.549   5.426   1.619
 7980SOL     OW28786   2.745   3.805   0.112
 7980SOL    HW128787   2.729   3.765   0.026
 7980SOL    HW228788   2.820   3.757   0.147
 7981SOL     OW28789   3.675   3.822   0.605
 7981SOL    HW128790   3.677   3.797   0.513
 7981SOL    HW228791   3.598   3.777   0.640
 7982SOL     OW28792   3.278   5.313   0.509
 7982SOL    HW128793   3.332   5.344   0.437
 7982SOL    HW228794   3.222   5.388   0.531
 7983SOL     OW28795   2.032   5.524   1.802
 7983SOL    HW128796   1.974   5.500   1.875
 7983SOL    HW228797   2.016   5.617   1.788
 7984SOL     OW28798   3.182   4.635   0.660
 7984SOL    HW128799   3.261   4.590   0.630
 7984SOL    HW228800   3.187   4.722   0.620
 7985SOL     OW28801   2.650   5.002   1.431
 7985SOL    HW128802   2.618   5.047   1.509
 7985SOL    HW228803   2.578   5.008   1.368
 7986SOL     OW28804   2.508   5.311   0.162
 7986SOL    HW128805   2.496   5.319   0.067
 7986SOL    HW228806   2.463   5.229   0.185
 7987SOL     OW28807   3.466   5.431   1.396
 7987SOL    HW128808   3.523   5.433   1.320
 7987SOL    HW228809   3.455   5.523   1.421
 7988SOL     OW28810   3.716   3.876   0.970
 7988SOL    HW128811   3.741   3.786   0.949
 7988SOL    HW228812   3.634   3.890   0.922
 7989SOL     OW28813   2.129   4.010   0.699
 7989SOL    HW128814   2.036   4.027   0.681
 7989SOL    HW228815   2.133   4.000   0.794
 7990SOL     OW28816   3.105   5.290   0.036
 7990SOL    HW128817   3.093   5.198   0.059
 7990SOL    HW228818   3.123   5.289   9.942
 7991SOL     OW28819   2.710   4.730   1.415
 7991SOL    HW128820   2.713   4.711   1.321
 7991SOL    HW228821   2.686   4.823   1.419
 7992SOL     OW28822   2.793   4.630   0.259
 7992SOL    HW128823   2.859   4.654   0.194
 7992SOL    HW228824   2.741   4.562   0.217
 7993SOL     OW28825   3.371   5.362   0.071
 7993SOL    HW128826   3.277   5.344   0.072
 7993SOL    HW228827   3.384   5.421   9.997
 7994SOL     OW28828   3.461   5.022   1.230
 7994SOL    HW128829   3.550   5.013   1.261
 7994SOL    HW228830   3.415   5.070   1.299
 7995SOL     OW28831   2.914   4.830   0.744
 7995SOL    HW128832   2.846   4.789   0.797
 7995SOL    HW228833   2.916   4.780   0.663
 7996SOL     OW28834   2.906   3.965   1.000
 7996SOL    HW128835   2.869   3.934   0.917
 7996SOL    HW228836   2.894   3.891   1.060
 7997SOL     OW28837   2.476   5.212   0.489
 7997SOL    HW128838   2.476   5.139   0.427
 7997SOL    HW228839   2.412   5.274   0.453
 7998SOL     OW28840   3.677   4.074   1.478
 7998SOL    HW128841   3.703   4.144   1.418
 7998SOL    HW228842   3.628   4.012   1.423
 7999SOL     OW28843   2.116   5.164   0.348
 7999SOL    HW128844   2.044   5.115   0.308
 7999SOL    HW228845   2.090   5.175   0.439
 8000SOL     OW28846   2.014   4.769   1.774
 8000SOL    HW128847   1.927   4.749   1.809
 8000SOL    HW228848   2.072   4.706   1.816
 8001SOL     OW28849   2.538   3.844   1.489
 8001SOL    HW128850   2.624   3.874   1.461
 8001SOL    HW228851   2.495   3.923   1.522
 8002SOL     OW28852   1.895   3.943   9.994
 8002SOL    HW128853   1.829   3.899   9.941
 8002SOL    HW228854   1.853   4.024   0.023
 8003SOL     OW28855   3.250   4.654   1.400
 8003SOL    HW128856   3.197   4.680   1.325
 8003SOL    HW228857   3.338   4.638   1.363
 8004SOL     OW28858   1.925   3.845   0.288
 8004SOL    HW128859   1.901   3.858   0.196
 8004SOL    HW228860   1.918   3.750   0.301
 8005SOL     OW28861   3.098   5.031   0.147
 8005SOL    HW128862   3.022   4.973   0.140
 8005SOL    HW228863   3.108   5.046   0.241
 8006SOL     OW28864   2.500   4.534   1.500
 8006SOL    HW128865   2.553   4.612   1.482
 8006SOL    HW228866   2.559   4.461   1.483
 8007SOL     OW28867   3.316   5.576   1.003
 8007SOL    HW128868   3.291   5.547   0.915
 8007SOL    HW228869   3.388   5.518   1.028
 8008SOL     OW28870   2.591   4.265   1.723
 8008SOL    HW128871   2.495   4.264   1.724
 8008SOL    HW228872   2.616   4.178   1.755
 8009SOL     OW28873   3.349   4.851   1.663
 8009SOL    HW128874   3.338   4.888   1.750
 8009SOL    HW228875   3.435   4.882   1.634
 8010SOL     OW28876   2.218   5.466   1.569
 8010SOL    HW128877   2.131   5.501   1.552
 8010SOL    HW228878   2.204   5.399   1.635
 8011SOL     OW28879   3.485   4.619   1.253
 8011SOL    HW128880   3.473   4.536   1.206
 8011SOL    HW228881   3.474   4.686   1.186
 8012SOL     OW28882   3.124   4.039   0.411
 8012SOL    HW128883   3.185   3.965   0.410
 8012SOL    HW228884   3.135   4.078   0.498
 8013SOL     OW28885   2.469   4.476   0.689
 8013SOL    HW128886   2.512   4.556   0.659
 8013SOL    HW228887   2.391   4.469   0.635
 8014SOL     OW28888   3.542   4.050   1.713
 8014SOL    HW128889   3.591   4.052   1.630
 8014SOL    HW228890   3.510   3.960   1.719
 8015SOL     OW28891   3.606   4.646   1.504
 8015SOL    HW128892   3.588   4.737   1.526
 8015SOL    HW228893   3.570   4.636   1.415
 8016SOL     OW28894   2.673   5.059   0.008
 8016SOL    HW128895   2.688   5.068   0.103
 8016SOL    HW228896   2.605   5.124   9.989
 8017SOL     OW28897   2.552   5.463   0.962
 8017SOL    HW128898   2.526   5.554   0.950
 8017SOL    HW228899   2.642   5.459   0.928
 8018SOL     OW28900   2.708   4.721   0.898
 8018SOL    HW128901   2.685   4.631   0.923
 8018SOL    HW228902   2.689   4.773   0.976
 8019SOL     OW28903   2.935   4.709   0.033
 8019SOL    HW128904   2.978   4.764   9.967
 8019SOL    HW228905   2.991   4.631   0.039
 8020SOL     OW28906   3.708   5.268   0.840
 8020SOL    HW128907   3.623   5.262   0.796
 8020SOL    HW228908   3.731   5.177   0.861
 8021SOL     OW28909   2.089   5.027   1.827
 8021SOL    HW128910   2.063   4.940   1.800
 8021SOL    HW228911   2.037   5.045   1.905
 8022SOL     OW28912   1.945   4.954   0.649
 8022SOL    HW128913   1.915   4.928   0.736
 8022SOL    HW228914   1.978   4.873   0.610
 8023SOL     OW28915   2.543   5.131   1.653
 8023SOL    HW128916   2.456   5.092   1.660
 8023SOL    HW228917   2.529   5.223   1.675
 8024SOL     OW28918   3.673   3.910   1.239
 8024SOL    HW128919   3.666   3.837   1.300
 8024SOL    HW228920   3.684   3.869   1.153
 8025SOL     OW28921   2.315   4.159   0.574
 8025SOL    HW128922   2.317   4.125   0.484
 8025SOL    HW228923   2.241   4.115   0.615
 8026SOL     OW28924   3.468   5.251   1.072
 8026SOL    HW128925   3.409   5.228   1.001
 8026SOL    HW228926   3.472   5.173   1.127
 8027SOL     OW28927   2.242   4.275   1.241
 8027SOL    HW128928   2.231   4.214   1.313
 8027SOL    HW228929   2.165   4.263   1.186
 8028SOL     OW28930   2.688   5.334   0.624
 8028SOL    HW128931   2.686   5.421   0.582
 8028SOL    HW228932   2.614   5.288   0.584
 8029SOL     OW28933   3.321   3.939   1.184
 8029SOL    HW128934   3.304   3.875   1.114
 8029SOL    HW228935   3.235   3.976   1.204
 8030SOL     OW28936   2.876   3.744   1.172
 8030SOL    HW128937   2.793   3.718   1.132
 8030SOL    HW228938   2.936   3.673   1.151
 8031SOL     OW28939   2.724   5.044   0.275
 8031SOL    HW128940   2.692   4.965   0.320
 8031SOL    HW228941   2.774   5.091   0.341
 8032SOL     OW28942   2.474   5.280   1.303
 8032SOL    HW128943   2.469   5.361   1.355
 8032SOL    HW228944   2.556   5.287   1.255
 8033SOL     OW28945   3.189   3.838   0.112
 8033SOL    HW128946   3.234   3.768   0.159
 8033SOL    HW228947   3.098   3.833   0.142
 8034SOL     OW28948   3.167   4.162   0.661
 8034SOL    HW128949   3.117   4.244   0.661
 8034SOL    HW228950   3.146   4.121   0.745
 8035SOL     OW28951   3.470   3.938   0.873
 8035SOL    HW128952   3.403   3.872   0.895
 8035SOL    HW228953   3.443   3.972   0.788
 8036SOL     OW28954   1.944   4.779   0.363
 8036SOL    HW128955   2.038   4.785   0.381
 8036SOL    HW228956   1.930   4.686   0.345
 8037SOL     OW28957   2.739   5.389   0.307
 8037SOL    HW128958   2.662   5.362   0.257
 8037SOL    HW228959   2.710   5.467   0.355
 8038SOL     OW28960   2.028   4.337   1.968
 8038SOL    HW128961   1.947   4.328   2.017
 8038SOL    HW228962   2.009   4.301   1.881
 8039SOL     OW28963   2.028   3.978   2.932
 8039SOL    HW128964   1.999   3.940   3.015
 8039SOL    HW228965   1.957   3.959   2.870
 8040SOL     OW28966   1.855   4.113   2.472
 8040SOL    HW128967   1.772   4.157   2.491
 8040SOL    HW228968   1.829   4.024   2.447
 8041SOL     OW28969   2.400   5.021   3.084
 8041SOL    HW128970   2.337   5.048   3.017
 8041SOL    HW228971   2.346   4.988   3.155
 8042SOL     OW28972   3.409   5.246   2.577
 8042SOL    HW128973   3.349   5.232   2.651
 8042SOL    HW228974   3.351   5.260   2.502
 8043SOL     OW28975   3.022   4.399   2.544
 8043SOL    HW128976   2.998   4.488   2.568
 8043SOL    HW228977   2.959   4.344   2.591
 8044SOL     OW28978   3.639   4.297   2.114
 8044SOL    HW128979   3.613   4.292   2.022
 8044SOL    HW228980   3.591   4.226   2.157
 8045SOL     OW28981   2.626   4.906   2.982
 8045SOL    HW128982   2.540   4.933   3.015
 8045SOL    HW228983   2.647   4.969   2.914
 8046SOL     OW28984   2.685   4.594   3.779
 8046SOL    HW128985   2.618   4.639   3.831
 8046SOL    HW228986   2.640   4.569   3.699
 8047SOL     OW28987   2.525   4.682   2.521
 8047SOL    HW128988   2.557   4.680   2.612
 8047SOL    HW228989   2.449   4.740   2.524
 8048SOL     OW28990   2.609   4.926   3.633
 8048SOL    HW128991   2.563   4.987   3.575
 8048SOL    HW228992   2.555   4.923   3.712
 8049SOL     OW28993   2.215   5.138   2.908
 8049SOL    HW128994   2.152   5.066   2.913
 8049SOL    HW228995   2.187   5.189   2.832
 8050SOL     OW28996   3.304   5.248   3.282
 8050SOL    HW128997   3.279   5.302   3.208
 8050SOL    HW228998   3.221   5.230   3.327
 8051SOL     OW28999   2.323   4.118   3.350
 8051SOL    HW129000   2.378   4.039   3.348
 8051SOL    HW229001   2.235   4.084   3.365
 8052SOL     OW29002   3.459   4.131   2.599
 8052SOL    HW129003   3.368   4.149   2.573
 8052SOL    HW229004   3.452   4.059   2.662
 8053SOL     OW29005   2.208   5.455   2.327
 8053SOL    HW129006   2.192   5.533   2.379
 8053SOL    HW229007   2.122   5.429   2.296
 8054SOL     OW29008   3.028   5.076   3.569
 8054SOL    HW129009   3.049   5.073   3.663
 8054SOL    HW229010   2.968   5.003   3.555
 8055SOL     OW29011   2.125   5.161   2.421
 8055SOL    HW129012   2.062   5.231   2.436
 8055SOL    HW229013   2.089   5.085   2.467
 8056SOL     OW29014   2.146   4.748   2.746
 8056SOL    HW129015   2.071   4.693   2.720
 8056SOL    HW229016   2.109   4.810   2.809
 8057SOL     OW29017   2.476   5.468   3.288
 8057SOL    HW129018   2.387   5.448   3.314
 8057SOL    HW229019   2.478   5.563   3.277
 8058SOL     OW29020   2.562   4.666   1.989
 8058SOL    HW129021   2.558   4.742   1.931
 8058SOL    HW229022   2.568   4.705   2.077
 8059SOL     OW29023   3.414   3.892   3.288
 8059SOL    HW129024   3.356   3.912   3.214
 8059SOL    HW229025   3.359   3.905   3.365
 8060SOL     OW29026   1.985   4.359   2.452
 8060SOL    HW129027   1.935   4.278   2.458
 8060SOL    HW229028   1.958   4.409   2.529
 8061SOL     OW29029   3.715   5.499   2.156
 8061SOL    HW129030   3.783   5.475   2.219
 8061SOL    HW229031   3.733   5.590   2.134
 8062SOL     OW29032   1.913   5.292   1.927
 8062SOL    HW129033   1.918   5.222   1.992
 8062SOL    HW229034   1.830   5.336   1.946
 8063SOL     OW29035   3.618   4.688   2.499
 8063SOL    HW129036   3.561   4.617   2.468
 8063SOL    HW229037   3.613   4.754   2.430
 8064SOL     OW29038   3.598   4.855   2.277
 8064SOL    HW129039   3.509   4.839   2.246
 8064SOL    HW229040   3.590   4.932   2.334
 8065SOL     OW29041   1.973   4.468   3.461
 8065SOL    HW129042   1.993   4.556   3.492
 8065SOL    HW229043   1.878   4.466   3.454
 8066SOL     OW29044   2.454   5.099   2.608
 8066SOL    HW129045   2.406   5.017   2.601
 8066SOL    HW229046   2.435   5.145   2.525
 8067SOL     OW29047   3.157   4.888   3.285
 8067SOL    HW129048   3.178   4.795   3.280
 8067SOL    HW229049   3.209   4.921   3.357
 8068SOL     OW29050   2.674   3.785   2.376
 8068SOL    HW129051   2.706   3.872   2.353
 8068SOL    HW229052   2.579   3.792   2.371
 8069SOL     OW29053   2.061   4.672   3.184
 8069SOL    HW129054   2.068   4.581   3.156
 8069SOL    HW229055   1.971   4.681   3.214
 8070SOL     OW29056   3.412   4.674   2.149
 8070SOL    HW129057   3.318   4.668   2.136
 8070SOL    HW229058   3.430   4.615   2.222
 8071SOL     OW29059   2.130   4.004   3.724
 8071SOL    HW129060   2.142   4.087   3.679
 8071SOL    HW229061   2.037   4.002   3.747
 8072SOL     OW29062   3.292   5.123   2.835
 8072SOL    HW129063   3.209   5.166   2.856
 8072SOL    HW229064   3.267   5.040   2.795
 8073SOL     OW29065   3.525   5.493   2.434
 8073SOL    HW129066   3.491   5.460   2.351
 8073SOL    HW229067   3.494   5.430   2.499
 8074SOL     OW29068   2.444   4.463   2.157
 8074SOL    HW129069   2.500   4.512   2.096
 8074SOL    HW229070   2.364   4.515   2.162
 8075SOL     OW29071   3.156   4.112   2.809
 8075SOL    HW129072   3.066   4.080   2.804
 8075SOL    HW229073   3.201   4.050   2.867
 8076SOL     OW29074   3.449   5.417   2.178
 8076SOL    HW129075   3.538   5.446   2.161
 8076SOL    HW229076   3.410   5.409   2.091
 8077SOL     OW29077   2.651   4.353   3.334
 8077SOL    HW129078   2.623   4.321   3.419
 8077SOL    HW229079   2.615   4.291   3.271
 8078SOL     OW29080   3.251   4.209   3.514
 8078SOL    HW129081   3.259   4.239   3.604
 8078SOL    HW229082   3.284   4.119   3.515
 8079SOL     OW29083   2.856   4.656   3.393
 8079SOL    HW129084   2.850   4.561   3.382
 8079SOL    HW229085   2.792   4.691   3.330
 8080SOL     OW29086   2.831   4.144   3.038
 8080SOL    HW129087   2.748   4.150   3.086
 8080SOL    HW229088   2.810   4.091   2.961
 8081SOL     OW29089   2.902   4.381   2.294
 8081SOL    HW129090   2.954   4.388   2.374
 8081SOL    HW229091   2.821   4.337   2.322
 8082SOL     OW29092   1.934   4.545   2.657
 8082SOL    HW129093   1.890   4.512   2.735
 8082SOL    HW229094   1.867   4.597   2.612
 8083SOL     OW29095   1.990   5.606   3.451
 8083SOL    HW129096   1.960   5.564   3.532
 8083SOL    HW229097   1.921   5.587   3.387
 8084SOL     OW29098   2.684   4.098   2.080
 8084SOL    HW129099   2.706   4.082   1.988
 8084SOL    HW229100   2.591   4.079   2.086
 8085SOL     OW29101   3.621   4.294   3.660
 8085SOL    HW129102   3.568   4.369   3.633
 8085SOL    HW229103   3.596   4.224   3.599
 8086SOL     OW29104   3.188   4.838   2.348
 8086SOL    HW129105   3.165   4.786   2.271
 8086SOL    HW229106   3.153   4.925   2.330
 8087SOL     OW29107   2.843   5.200   2.340
 8087SOL    HW129108   2.824   5.263   2.271
 8087SOL    HW229109   2.792   5.230   2.415
 8088SOL     OW29110   2.232   5.539   2.730
 8088SOL    HW129111   2.289   5.463   2.728
 8088SOL    HW229112   2.287   5.610   2.763
 8089SOL     OW29113   3.667   4.775   2.768
 8089SOL    HW129114   3.631   4.750   2.683
 8089SOL    HW229115   3.590   4.790   2.823
 8090SOL     OW29116   3.037   5.273   3.377
 8090SOL    HW129117   3.033   5.211   3.451
 8090SOL    HW229118   2.991   5.228   3.306
 8091SOL     OW29119   2.187   4.586   2.147
 8091SOL    HW129120   2.191   4.597   2.052
 8091SOL    HW229121   2.095   4.562   2.164
 8092SOL     OW29122   3.290   4.467   2.590
 8092SOL    HW129123   3.210   4.419   2.566
 8092SOL    HW229124   3.310   4.437   2.678
 8093SOL     OW29125   3.024   5.463   2.116
 8093SOL    HW129126   2.933   5.453   2.144
 8093SOL    HW229127   3.032   5.409   2.038
 8094SOL     OW29128   2.065   4.018   3.358
 8094SOL    HW129129   1.990   4.054   3.309
 8094SOL    HW229130   2.030   3.938   3.398
 8095SOL     OW29131   3.520   5.138   1.958
 8095SOL    HW129132   3.469   5.219   1.951
 8095SOL    HW229133   3.455   5.068   1.948
 8096SOL     OW29134   2.382   5.500   2.117
 8096SOL    HW129135   2.332   5.498   2.199
 8096SOL    HW229136   2.370   5.413   2.079
 8097SOL     OW29137   3.272   3.839   2.310
 8097SOL    HW129138   3.270   3.803   2.221
 8097SOL    HW229139   3.343   3.792   2.354
 8098SOL     OW29140   2.119   5.515   3.103
 8098SOL    HW129141   2.171   5.439   3.126
 8098SOL    HW229142   2.029   5.481   3.095
 8099SOL     OW29143   2.865   5.367   2.705
 8099SOL    HW129144   2.826   5.342   2.789
 8099SOL    HW229145   2.794   5.354   2.641
 8100SOL     OW29146   2.234   4.397   2.353
 8100SOL    HW129147   2.152   4.374   2.396
 8100SOL    HW229148   2.214   4.478   2.305
 8101SOL     OW29149   3.323   3.940   3.560
 8101SOL    HW129150   3.342   3.952   3.653
 8101SOL    HW229151   3.262   3.866   3.558
 8102SOL     OW29152   2.553   3.824   1.944
 8102SOL    HW129153   2.554   3.742   1.994
 8102SOL    HW229154   2.470   3.820   1.896
 8103SOL     OW29155   2.640   3.962   3.622
 8103SOL    HW129156   2.722   3.913   3.628
 8103SOL    HW229157   2.581   3.916   3.681
 8104SOL     OW29158   2.778   5.255   2.944
 8104SOL    HW129159   2.744   5.187   2.886
 8104SOL    HW229160   2.712   5.265   3.012
 8105SOL     OW29161   3.187   4.368   3.296
 8105SOL    HW129162   3.218   4.311   3.367
 8105SOL    HW229163   3.091   4.365   3.304
 8106SOL     OW29164   2.680   5.069   2.764
 8106SOL    HW129165   2.737   5.023   2.702
 8106SOL    HW229166   2.599   5.085   2.715
 8107SOL     OW29167   2.876   4.205   2.675
 8107SOL    HW129168   2.804   4.209   2.612
 8107SOL    HW229169   2.872   4.116   2.710
 8108SOL     OW29170   2.396   3.821   2.333
 8108SOL    HW129171   2.327   3.783   2.387
 8108SOL    HW229172   2.366   3.807   2.243
 8109SOL     OW29173   3.320   4.944   1.935
 8109SOL    HW129174   3.310   4.859   1.980
 8109SOL    HW229175   3.236   4.987   1.947
 8110SOL     OW29176   2.276   3.815   2.081
 8110SOL    HW129177   2.195   3.858   2.108
 8110SOL    HW229178   2.249   3.749   2.017
 8111SOL     OW29179   2.799   4.026   2.315
 8111SOL    HW129180   2.765   4.050   2.229
 8111SOL    HW229181   2.895   4.029   2.305
 8112SOL     OW29182   2.919   4.320   3.333
 8112SOL    HW129183   2.825   4.334   3.331
 8112SOL    HW229184   2.932   4.241   3.384
 8113SOL     OW29185   3.140   5.348   2.672
 8113SOL    HW129186   3.143   5.405   2.595
 8113SOL    HW229187   3.048   5.350   2.699
 8114SOL     OW29188   2.320   4.862   2.559
 8114SOL    HW129189   2.251   4.829   2.617
 8114SOL    HW229190   2.281   4.857   2.471
 8115SOL     OW29191   3.132   5.537   2.474
 8115SOL    HW129192   3.175   5.605   2.422
 8115SOL    HW229193   3.051   5.578   2.505
 8116SOL     OW29194   2.971   4.338   1.845
 8116SOL    HW129195   2.883   4.374   1.848
 8116SOL    HW229196   2.984   4.300   1.932
 8117SOL     OW29197   2.021   4.388   3.198
 8117SOL    HW129198   1.933   4.370   3.166
 8117SOL    HW229199   2.008   4.414   3.289
 8118SOL     OW29200   2.390   3.911   2.950
 8118SOL    HW129201   2.431   3.828   2.925
 8118SOL    HW229202   2.354   3.894   3.038
 8119SOL     OW29203   2.714   4.257   2.457
 8119SOL    HW129204   2.626   4.294   2.466
 8119SOL    HW229205   2.700   4.172   2.415
 8120SOL     OW29206   2.869   3.761   2.580
 8120SOL    HW129207   2.804   3.771   2.510
 8120SOL    HW229208   2.832   3.695   2.639
 8121SOL     OW29209   3.272   4.862   2.714
 8121SOL    HW129210   3.194   4.807   2.723
 8121SOL    HW229211   3.277   4.881   2.621
 8122SOL     OW29212   3.290   4.364   2.849
 8122SOL    HW129213   3.246   4.279   2.843
 8122SOL    HW229214   3.359   4.351   2.914
 8123SOL     OW29215   3.729   4.527   2.230
 8123SOL    HW129216   3.771   4.487   2.306
 8123SOL    HW229217   3.688   4.454   2.184
 8124SOL     OW29218   2.344   5.239   2.019
 8124SOL    HW129219   2.289   5.178   2.068
 8124SOL    HW229220   2.296   5.256   1.938
 8125SOL     OW29221   3.586   5.046   2.476
 8125SOL    HW129222   3.664   5.074   2.524
 8125SOL    HW229223   3.518   5.106   2.504
 8126SOL     OW29224   3.269   4.262   1.931
 8126SOL    HW129225   3.192   4.266   1.988
 8126SOL    HW229226   3.309   4.178   1.952
 8127SOL     OW29227   2.407   4.061   2.074
 8127SOL    HW129228   2.380   3.969   2.078
 8127SOL    HW229229   2.359   4.097   1.999
 8128SOL     OW29230   3.602   4.874   3.457
 8128SOL    HW129231   3.614   4.831   3.542
 8128SOL    HW229232   3.641   4.961   3.469
 8129SOL     OW29233   2.956   5.057   3.201
 8129SOL    HW129234   2.871   5.042   3.244
 8129SOL    HW229235   3.014   4.992   3.240
 8130SOL     OW29236   3.458   5.329   3.506
 8130SOL    HW129237   3.497   5.402   3.458
 8130SOL    HW229238   3.394   5.292   3.446
 8131SOL     OW29239   2.960   4.893   2.965
 8131SOL    HW129240   2.949   4.950   3.041
 8131SOL    HW229241   2.981   4.953   2.893
 8132SOL     OW29242   3.443   4.817   2.926
 8132SOL    HW129243   3.413   4.881   2.990
 8132SOL    HW229244   3.380   4.825   2.853
 8133SOL     OW29245   2.797   3.867   3.225
 8133SOL    HW129246   2.810   3.835   3.136
 8133SOL    HW229247   2.850   3.809   3.280
 8134SOL     OW29248   2.868   4.852   3.586
 8134SOL    HW129249   2.778   4.876   3.606
 8134SOL    HW229250   2.860   4.783   3.520
 8135SOL     OW29251   2.604   4.760   2.250
 8135SOL    HW129252   2.553   4.740   2.328
 8135SOL    HW229253   2.689   4.718   2.265
 8136SOL     OW29254   2.390   4.506   3.078
 8136SOL    HW129255   2.384   4.542   3.166
 8136SOL    HW229256   2.335   4.428   3.081
 8137SOL     OW29257   3.085   4.102   3.133
 8137SOL    HW129258   3.113   4.190   3.159
 8137SOL    HW229259   2.995   4.114   3.102
 8138SOL     OW29260   1.962   5.287   3.253
 8138SOL    HW129261   1.910   5.334   3.188
 8138SOL    HW229262   1.962   5.196   3.223
 8139SOL     OW29263   2.254   4.828   2.292
 8139SOL    HW129264   2.222   4.904   2.243
 8139SOL    HW229265   2.220   4.753   2.244
 8140SOL     OW29266   2.530   4.287   2.745
 8140SOL    HW129267   2.504   4.321   2.659
 8140SOL    HW229268   2.451   4.245   2.779
 8141SOL     OW29269   3.093   5.092   2.275
 8141SOL    HW129270   3.148   5.165   2.303
 8141SOL    HW229271   3.004   5.118   2.300
 8142SOL     OW29272   3.050   5.244   3.015
 8142SOL    HW129273   3.038   5.176   3.082
 8142SOL    HW229274   2.964   5.255   2.976
 8143SOL     OW29275   3.453   4.499   2.373
 8143SOL    HW129276   3.394   4.488   2.447
 8143SOL    HW229277   3.459   4.412   2.334
 8144SOL     OW29278   2.265   5.283   3.147
 8144SOL    HW129279   2.233   5.234   3.071
 8144SOL    HW229280   2.239   5.231   3.222
 8145SOL     OW29281   2.356   4.439   3.562
 8145SOL    HW129282   2.377   4.489   3.483
 8145SOL    HW229283   2.281   4.385   3.536
 8146SOL     OW29284   3.465   4.510   3.555
 8146SOL    HW129285   3.380   4.546   3.577
 8146SOL    HW229286   3.452   4.469   3.469
 8147SOL     OW29287   2.901   3.853   3.643
 8147SOL    HW129288   2.935   3.935   3.608
 8147SOL    HW229289   2.955   3.785   3.602
 8148SOL     OW29290   2.310   3.810   3.645
 8148SOL    HW129291   2.266   3.749   3.586
 8148SOL    HW229292   2.245   3.877   3.665
 8149SOL     OW29293   2.405   4.671   2.847
 8149SOL    HW129294   2.320   4.694   2.809
 8149SOL    HW229295   2.382   4.619   2.924
 8150SOL     OW29296   3.098   4.567   2.880
 8150SOL    HW129297   3.031   4.506   2.849
 8150SOL    HW229298   3.178   4.515   2.882
 8151SOL     OW29299   3.050   4.249   2.103
 8151SOL    HW129300   3.066   4.169   2.154
 8151SOL    HW229301   2.991   4.301   2.158
 8152SOL     OW29302   2.256   3.863   3.189
 8152SOL    HW129303   2.183   3.909   3.232
 8152SOL    HW229304   2.214   3.792   3.142
 8153SOL     OW29305   1.943   5.026   3.164
 8153SOL    HW129306   1.968   4.969   3.237
 8153SOL    HW229307   1.847   5.027   3.166
 8154SOL     OW29308   2.620   4.460   2.933
 8154SOL    HW129309   2.589   4.395   2.871
 8154SOL    HW229310   2.542   4.485   2.983
 8155SOL     OW29311   3.616   4.709   3.681
 8155SOL    HW129312   3.575   4.634   3.637
 8155SOL    HW229313   3.569   4.717   3.764
 8156SOL     OW29314   2.168   3.738   2.468
 8156SOL    HW129315   2.076   3.766   2.471
 8156SOL    HW229316   2.194   3.732   2.560
 8157SOL     OW29317   3.484   4.099   2.245
 8157SOL    HW129318   3.542   4.033   2.283
 8157SOL    HW229319   3.403   4.093   2.296
 8158SOL     OW29320   2.869   4.440   2.815
 8158SOL    HW129321   2.782   4.444   2.855
 8158SOL    HW229322   2.875   4.351   2.779
 8159SOL     OW29323   2.834   5.334   3.598
 8159SOL    HW129324   2.745   5.366   3.587
 8159SOL    HW229325   2.823   5.250   3.644
 8160SOL     OW29326   3.683   5.147   3.469
 8160SOL    HW129327   3.601   5.190   3.444
 8160SOL    HW229328   3.701   5.179   3.557
 8161SOL     OW29329   2.235   4.642   3.741
 8161SOL    HW129330   2.281   4.714   3.697
 8161SOL    HW229331   2.266   4.563   3.697
 8162SOL     OW29332   3.364   4.016   2.000
 8162SOL    HW129333   3.320   3.931   2.009
 8162SOL    HW229334   3.411   4.027   2.083
 8163SOL     OW29335   3.216   4.494   1.787
 8163SOL    HW129336   3.243   4.424   1.847
 8163SOL    HW229337   3.121   4.482   1.778
 8164SOL     OW29338   3.022   5.056   2.744
 8164SOL    HW129339   2.974   4.989   2.695
 8164SOL    HW229340   3.019   5.134   2.688
 8165SOL     OW29341   2.137   4.418   2.805
 8165SOL    HW129342   2.107   4.473   2.732
 8165SOL    HW229343   2.059   4.408   2.860
 8166SOL     OW29344   2.287   4.201   2.856
 8166SOL    HW129345   2.281   4.207   2.951
 8166SOL    HW229346   2.236   4.275   2.823
 8167SOL     OW29347   2.988   4.109   3.527
 8167SOL    HW129348   2.933   4.154   3.592
 8167SOL    HW229349   3.073   4.152   3.534
 8168SOL     OW29350   3.076   3.920   3.342
 8168SOL    HW129351   3.033   3.976   3.405
 8168SOL    HW229352   3.069   3.967   3.258
 8169SOL     OW29353   1.912   5.027   2.037
 8169SOL    HW129354   1.828   5.038   1.992
 8169SOL    HW229355   1.906   4.940   2.077
 8170SOL     OW29356   1.960   5.529   2.805
 8170SOL    HW129357   1.928   5.449   2.763
 8170SOL    HW229358   2.054   5.531   2.786
 8171SOL     OW29359   2.424   5.332   2.764
 8171SOL    HW129360   2.394   5.292   2.846
 8171SOL    HW229361   2.431   5.258   2.703
 8172SOL     OW29362   2.837   4.511   3.106
 8172SOL    HW129363   2.871   4.441   3.161
 8172SOL    HW229364   2.752   4.479   3.075
 8173SOL     OW29365   1.872   4.396   2.893
 8173SOL    HW129366   1.848   4.304   2.883
 8173SOL    HW229367   1.827   4.424   2.972
 8174SOL     OW29368   2.076   4.234   3.562
 8174SOL    HW129369   2.051   4.165   3.500
 8174SOL    HW229370   2.034   4.313   3.528
 8175SOL     OW29371   3.210   4.631   3.568
 8175SOL    HW129372   3.122   4.665   3.580
 8175SOL    HW229373   3.226   4.638   3.474
 8176SOL     OW29374   3.503   4.350   3.034
 8176SOL    HW129375   3.503   4.285   3.104
 8176SOL    HW229376   3.585   4.333   2.986
 8177SOL     OW29377   2.576   4.156   3.156
 8177SOL    HW129378   2.561   4.083   3.217
 8177SOL    HW229379   2.495   4.161   3.105
 8178SOL     OW29380   2.770   5.402   3.259
 8178SOL    HW129381   2.705   5.337   3.233
 8178SOL    HW229382   2.730   5.486   3.237
 8179SOL     OW29383   2.291   4.292   1.968
 8179SOL    HW129384   2.316   4.328   1.883
 8179SOL    HW229385   2.196   4.305   1.973
 8180SOL     OW29386   2.082   4.876   3.367
 8180SOL    HW129387   2.039   4.836   3.442
 8180SOL    HW229388   2.088   4.806   3.303
 8181SOL     OW29389   3.138   4.657   2.135
 8181SOL    HW129390   3.092   4.598   2.195
 8181SOL    HW229391   3.079   4.666   2.061
 8182SOL     OW29392   3.609   5.476   3.045
 8182SOL    HW129393   3.674   5.477   2.974
 8182SOL    HW229394   3.526   5.456   3.001
 8183SOL     OW29395   3.177   5.492   3.000
 8183SOL    HW129396   3.243   5.477   2.932
 8183SOL    HW229397   3.128   5.410   3.004
 8184SOL     OW29398   2.023   4.946   2.907
 8184SOL    HW129399   1.987   4.960   2.995
 8184SOL    HW229400   1.947   4.917   2.856
 8185SOL     OW29401   2.583   5.429   3.547
 8185SOL    HW129402   2.512   5.387   3.595
 8185SOL    HW229403   2.550   5.438   3.458
 8186SOL     OW29404   3.638   3.899   2.355
 8186SOL    HW129405   3.687   3.872   2.277
 8186SOL    HW229406   3.593   3.820   2.384
 8187SOL     OW29407   3.255   5.312   2.355
 8187SOL    HW129408   3.308   5.345   2.283
 8187SOL    HW229409   3.197   5.384   2.378
 8188SOL     OW29410   2.046   5.517   3.729
 8188SOL    HW129411   2.105   5.464   3.675
 8188SOL    HW229412   2.104   5.579   3.773
 8189SOL     OW29413   3.106   4.681   2.560
 8189SOL    HW129414   3.176   4.617   2.571
 8189SOL    HW229415   3.131   4.731   2.482
 8190SOL     OW29416   2.692   5.054   3.306
 8190SOL    HW129417   2.636   5.068   3.383
 8190SOL    HW229418   2.654   5.110   3.238
 8191SOL     OW29419   2.607   5.305   1.958
 8191SOL    HW129420   2.590   5.349   1.874
 8191SOL    HW229421   2.522   5.274   1.987
 8192SOL     OW29422   3.569   5.516   3.326
 8192SOL    HW129423   3.564   5.493   3.233
 8192SOL    HW229424   3.514   5.594   3.334
 8193SOL     OW29425   3.700   3.888   2.871
 8193SOL    HW129426   3.725   3.798   2.849
 8193SOL    HW229427   3.612   3.898   2.835
 8194SOL     OW29428   2.082   4.025   2.613
 8194SOL    HW129429   2.032   4.083   2.556
 8194SOL    HW229430   2.017   3.965   2.650
 8195SOL     OW29431   3.095   5.313   1.887
 8195SOL    HW129432   3.087   5.224   1.920
 8195SOL    HW229433   3.026   5.321   1.821
 8196SOL     OW29434   2.664   4.782   3.234
 8196SOL    HW129435   2.644   4.801   3.142
 8196SOL    HW229436   2.668   4.868   3.276
 8197SOL     OW29437   2.854   4.645   2.238
 8197SOL    HW129438   2.864   4.656   2.143
 8197SOL    HW229439   2.856   4.551   2.251
 8198SOL     OW29440   3.364   5.370   1.916
 8198SOL    HW129441   3.271   5.352   1.900
 8198SOL    HW229442   3.402   5.378   1.828
 8199SOL     OW29443   2.226   5.111   3.368
 8199SOL    HW129444   2.185   5.163   3.436
 8199SOL    HW229445   2.175   5.030   3.365
 8200SOL     OW29446   3.481   5.042   3.209
 8200SOL    HW129447   3.464   4.969   3.268
 8200SOL    HW229448   3.417   5.109   3.236
 8201SOL     OW29449   2.887   4.843   2.642
 8201SOL    HW129450   2.816   4.789   2.678
 8201SOL    HW229451   2.946   4.780   2.601
 8202SOL     OW29452   2.918   3.949   2.787
 8202SOL    HW129453   2.907   3.895   2.710
 8202SOL    HW229454   2.902   3.890   2.861
 8203SOL     OW29455   2.423   5.260   2.381
 8203SOL    HW129456   2.413   5.208   2.301
 8203SOL    HW229457   2.344   5.313   2.386
 8204SOL     OW29458   3.598   4.157   3.223
 8204SOL    HW129459   3.684   4.199   3.219
 8204SOL    HW229460   3.613   4.067   3.195
 8205SOL     OW29461   2.166   5.077   2.164
 8205SOL    HW129462   2.078   5.062   2.130
 8205SOL    HW229463   2.153   5.111   2.253
 8206SOL     OW29464   1.986   4.721   3.586
 8206SOL    HW129465   1.894   4.720   3.613
 8206SOL    HW229466   2.035   4.700   3.666
 8207SOL     OW29467   2.564   3.952   3.347
 8207SOL    HW129468   2.643   3.917   3.306
 8207SOL    HW229469   2.584   3.954   3.440
 8208SOL     OW29470   1.905   3.907   1.849
 8208SOL    HW129471   1.889   3.878   1.759
 8208SOL    HW229472   1.820   3.938   1.880
 8209SOL     OW29473   3.277   4.627   3.295
 8209SOL    HW129474   3.238   4.541   3.284
 8209SOL    HW229475   3.352   4.628   3.236
 8210SOL     OW29476   2.031   3.924   2.124
 8210SOL    HW129477   1.987   3.963   2.048
 8210SOL    HW229478   1.970   3.858   2.156
 8211SOL     OW29479   3.069   5.056   1.995
 8211SOL    HW129480   2.975   5.068   1.978
 8211SOL    HW229481   3.077   5.060   2.090
 8212SOL     OW29482   2.483   4.575   3.341
 8212SOL    HW129483   2.532   4.654   3.315
 8212SOL    HW229484   2.546   4.504   3.332
 8213SOL     OW29485   3.381   5.492   2.807
 8213SOL    HW129486   3.321   5.458   2.742
 8213SOL    HW229487   3.398   5.583   2.780
 8214SOL     OW29488   2.584   4.265   3.588
 8214SOL    HW129489   2.501   4.312   3.601
 8214SOL    HW229490   2.561   4.173   3.598
 8215SOL     OW29491   3.338   4.955   3.480
 8215SOL    HW129492   3.307   4.948   3.570
 8215SOL    HW229493   3.424   4.913   3.481
 8216SOL     OW29494   2.252   5.508   3.452
 8216SOL    HW129495   2.163   5.539   3.432
 8216SOL    HW229496   2.238   5.430   3.506
 8217SOL     OW29497   3.500   4.615   3.119
 8217SOL    HW129498   3.495   4.526   3.086
 8217SOL    HW229499   3.478   4.670   3.044
 8218SOL     OW29500   3.094   4.053   2.303
 8218SOL    HW129501   3.145   3.972   2.295
 8218SOL    HW229502   3.120   4.090   2.387
 8219SOL     OW29503   2.477   4.401   2.494
 8219SOL    HW129504   2.495   4.495   2.495
 8219SOL    HW229505   2.390   4.394   2.455
 8220SOL     OW29506   3.565   4.085   3.495
 8220SOL    HW129507   3.563   4.105   3.401
 8220SOL    HW229508   3.498   4.017   3.506
 8221SOL     OW29509   3.712   4.689   3.284
 8221SOL    HW129510   3.670   4.749   3.345
 8221SOL    HW229511   3.641   4.656   3.229
 8222SOL     OW29512   2.807   5.118   1.941
 8222SOL    HW129513   2.778   5.061   2.012
 8222SOL    HW229514   2.743   5.189   1.940
 8223SOL     OW29515   2.615   5.545   2.803
 8223SOL    HW129516   2.554   5.619   2.795
 8223SOL    HW229517   2.564   5.468   2.780
 8224SOL     OW29518   2.706   4.704   2.813
 8224SOL    HW129519   2.648   4.629   2.821
 8224SOL    HW229520   2.659   4.775   2.858
 8225SOL     OW29521   2.916   4.648   1.965
 8225SOL    HW129522   2.889   4.716   1.903
 8225SOL    HW229523   2.866   4.571   1.938
 8226SOL     OW29524   3.646   5.271   2.732
 8226SOL    HW129525   3.569   5.275   2.675
 8226SOL    HW229526   3.613   5.233   2.813
 8227SOL     OW29527   1.984   4.960   2.539
 8227SOL    HW129528   1.900   4.999   2.516
 8227SOL    HW229529   1.964   4.900   2.611
 8228SOL     OW29530   2.480   5.119   3.481
 8228SOL    HW129531   2.399   5.107   3.431
 8228SOL    HW229532   2.454   5.174   3.555
 8229SOL     OW29533   3.724   3.918   3.148
 8229SOL    HW129534   3.687   3.841   3.190
 8229SOL    HW229535   3.708   3.904   3.055
 8230SOL     OW29536   2.316   4.090   2.372
 8230SOL    HW129537   2.350   4.001   2.359
 8230SOL    HW229538   2.246   4.080   2.436
 8231SOL     OW29539   3.530   5.166   2.962
 8231SOL    HW129540   3.448   5.159   2.913
 8231SOL    HW229541   3.510   5.129   3.048
 8232SOL     OW29542   2.258   4.264   3.125
 8232SOL    HW129543   2.278   4.213   3.204
 8232SOL    HW229544   2.169   4.298   3.140
 8233SOL     OW29545   2.669   5.346   2.504
 8233SOL    HW129546   2.670   5.437   2.476
 8233SOL    HW229547   2.584   5.313   2.477
 8234SOL     OW29548   3.253   3.929   3.000
 8234SOL    HW129549   3.220   3.839   3.001
 8234SOL    HW229550   3.190   3.979   3.052
 8235SOL     OW29551   2.872   3.748   2.979
 8235SOL    HW129552   2.799   3.690   2.957
 8235SOL    HW229553   2.948   3.689   2.986
 8236SOL     OW29554   2.736   4.990   2.166
 8236SOL    HW129555   2.679   4.918   2.195
 8236SOL    HW229556   2.753   5.040   2.246
 8237SOL     OW29557   2.567   5.243   3.138
 8237SOL    HW129558   2.514   5.314   3.174
 8237SOL    HW229559   2.503   5.175   3.116
 8238SOL     OW29560   3.240   3.765   2.043
 8238SOL    HW129561   3.284   3.692   1.999
 8238SOL    HW229562   3.147   3.743   2.038
 8239SOL     OW29563   3.184   4.172   2.541
 8239SOL    HW129564   3.118   4.241   2.532
 8239SOL    HW229565   3.172   4.140   2.630
 8240SOL     OW29566   3.438   3.923   2.789
 8240SOL    HW129567   3.384   3.940   2.866
 8240SOL    HW229568   3.430   3.829   2.774
 8241SOL     OW29569   1.894   4.779   2.159
 8241SOL    HW129570   1.907   4.686   2.174
 8241SOL    HW229571   1.815   4.802   2.208
 8242SOL     OW29572   2.757   5.405   2.173
 8242SOL    HW129573   2.701   5.378   2.100
 8242SOL    HW229574   2.704   5.468   2.222
 8243SOL     OW29575   2.106   4.305   3.833
 8243SOL    HW129576   2.021   4.325   3.873
 8243SOL    HW229577   2.084   4.286   3.741
 8244SOL     OW29578   1.863   4.121   4.335
 8244SOL    HW129579   1.779   4.137   4.378
 8244SOL    HW229580   1.849   4.038   4.288
 8245SOL     OW29581   2.433   4.978   4.953
 8245SOL    HW129582   2.378   4.900   4.950
 8245SOL    HW229583   2.372   5.051   4.947
 8246SOL     OW29584   3.005   4.394   4.429
 8246SOL    HW129585   2.990   4.466   4.490
 8246SOL    HW229586   2.936   4.331   4.450
 8247SOL     OW29587   3.688   4.293   3.923
 8247SOL    HW129588   3.658   4.295   3.832
 8247SOL    HW229589   3.628   4.233   3.967
 8248SOL     OW29590   2.688   4.896   4.805
 8248SOL    HW129591   2.611   4.858   4.847
 8248SOL    HW229592   2.660   4.982   4.776
 8249SOL     OW29593   2.696   4.596   5.594
 8249SOL    HW129594   2.645   4.675   5.577
 8249SOL    HW229595   2.744   4.581   5.512
 8250SOL     OW29596   2.566   4.689   4.384
 8250SOL    HW129597   2.619   4.700   4.462
 8250SOL    HW229598   2.484   4.736   4.404
 8251SOL     OW29599   2.628   4.905   5.452
 8251SOL    HW129600   2.619   4.996   5.426
 8251SOL    HW229601   2.538   4.872   5.457
 8252SOL     OW29602   2.123   5.099   4.734
 8252SOL    HW129603   2.061   5.028   4.752
 8252SOL    HW229604   2.124   5.106   4.639
 8253SOL     OW29605   3.332   5.234   5.102
 8253SOL    HW129606   3.378   5.316   5.121
 8253SOL    HW229607   3.251   5.240   5.153
 8254SOL     OW29608   2.289   4.082   5.170
 8254SOL    HW129609   2.347   4.025   5.220
 8254SOL    HW229610   2.201   4.053   5.194
 8255SOL     OW29611   3.381   4.081   4.534
 8255SOL    HW129612   3.327   4.111   4.461
 8255SOL    HW229613   3.380   4.155   4.596
 8256SOL     OW29614   3.088   5.030   5.440
 8256SOL    HW129615   3.085   5.059   5.531
 8256SOL    HW229616   3.017   4.967   5.432
 8257SOL     OW29617   2.121   4.792   4.630
 8257SOL    HW129618   2.111   4.780   4.725
 8257SOL    HW229619   2.031   4.808   4.599
 8258SOL     OW29620   2.501   5.500   5.194
 8258SOL    HW129621   2.410   5.473   5.208
 8258SOL    HW229622   2.498   5.595   5.192
 8259SOL     OW29623   2.504   4.720   3.955
 8259SOL    HW129624   2.483   4.795   3.899
 8259SOL    HW229625   2.464   4.741   4.039
 8260SOL     OW29626   3.405   3.894   5.150
 8260SOL    HW129627   3.325   3.868   5.104
 8260SOL    HW229628   3.381   3.898   5.242
 8261SOL     OW29629   1.997   4.364   4.272
 8261SOL    HW129630   1.952   4.280   4.281
 8261SOL    HW229631   1.974   4.412   4.352
 8262SOL     OW29632   3.703   5.474   4.046
 8262SOL    HW129633   3.778   5.453   4.103
 8262SOL    HW229634   3.714   5.567   4.025
 8263SOL     OW29635   3.571   4.655   4.415
 8263SOL    HW129636   3.499   4.593   4.422
 8263SOL    HW229637   3.557   4.700   4.332
 8264SOL     OW29638   3.543   4.811   4.184
 8264SOL    HW129639   3.624   4.816   4.133
 8264SOL    HW229640   3.488   4.881   4.150
 8265SOL     OW29641   2.519   5.049   4.436
 8265SOL    HW129642   2.459   4.976   4.452
 8265SOL    HW229643   2.481   5.095   4.361
 8266SOL     OW29644   3.126   4.965   5.105
 8266SOL    HW129645   3.136   4.888   5.049
 8266SOL    HW229646   3.173   4.942   5.185
 8267SOL     OW29647   2.696   3.774   4.240
 8267SOL    HW129648   2.715   3.865   4.217
 8267SOL    HW229649   2.602   3.774   4.260
 8268SOL     OW29650   2.120   4.692   4.895
 8268SOL    HW129651   2.174   4.637   4.953
 8268SOL    HW229652   2.054   4.730   4.953
 8269SOL     OW29653   3.444   4.711   3.905
 8269SOL    HW129654   3.381   4.642   3.883
 8269SOL    HW229655   3.462   4.697   3.998
 8270SOL     OW29656   3.151   5.615   5.356
 8270SOL    HW129657   3.106   5.663   5.287
 8270SOL    HW229658   3.126   5.524   5.342
 8271SOL     OW29659   2.179   4.061   5.503
 8271SOL    HW129660   2.154   4.139   5.453
 8271SOL    HW229661   2.102   4.039   5.554
 8272SOL     OW29662   3.295   5.084   4.644
 8272SOL    HW129663   3.246   5.102   4.723
 8272SOL    HW229664   3.294   4.989   4.636
 8273SOL     OW29665   3.532   5.440   4.328
 8273SOL    HW129666   3.475   5.436   4.251
 8273SOL    HW229667   3.546   5.349   4.353
 8274SOL     OW29668   2.459   4.449   4.019
 8274SOL    HW129669   2.455   4.538   3.986
 8274SOL    HW229670   2.388   4.444   4.084
 8275SOL     OW29671   3.097   4.038   4.631
 8275SOL    HW129672   3.010   4.000   4.640
 8275SOL    HW229673   3.106   4.096   4.708
 8276SOL     OW29674   3.430   5.458   4.065
 8276SOL    HW129675   3.524   5.455   4.047
 8276SOL    HW229676   3.389   5.421   3.986
 8277SOL     OW29677   2.679   4.288   5.219
 8277SOL    HW129678   2.633   4.253   5.295
 8277SOL    HW229679   2.650   4.232   5.146
 8278SOL     OW29680   3.243   4.197   5.364
 8278SOL    HW129681   3.246   4.230   5.454
 8278SOL    HW229682   3.274   4.106   5.371
 8279SOL     OW29683   2.830   4.608   5.345
 8279SOL    HW129684   2.871   4.538   5.294
 8279SOL    HW229685   2.774   4.654   5.283
 8280SOL     OW29686   2.884   4.066   4.931
 8280SOL    HW129687   2.800   4.102   4.960
 8280SOL    HW229688   2.863   4.014   4.854
 8281SOL     OW29689   2.920   4.410   4.144
 8281SOL    HW129690   2.917   4.393   4.238
 8281SOL    HW229691   2.839   4.373   4.110
 8282SOL     OW29692   1.915   4.513   4.491
 8282SOL    HW129693   1.940   4.577   4.556
 8282SOL    HW229694   1.842   4.553   4.444
 8283SOL     OW29695   2.009   5.576   5.305
 8283SOL    HW129696   1.985   5.545   5.393
 8283SOL    HW229697   1.957   5.522   5.246
 8284SOL     OW29698   2.681   4.055   3.911
 8284SOL    HW129699   2.712   4.062   3.820
 8284SOL    HW229700   2.606   3.996   3.905
 8285SOL     OW29701   3.627   4.283   5.551
 8285SOL    HW129702   3.595   4.365   5.516
 8285SOL    HW229703   3.598   4.216   5.488
 8286SOL     OW29704   3.247   4.982   4.320
 8286SOL    HW129705   3.232   4.887   4.319
 8286SOL    HW229706   3.206   5.013   4.240
 8287SOL     OW29707   2.384   3.897   4.648
 8287SOL    HW129708   2.343   3.982   4.663
 8287SOL    HW229709   2.332   3.859   4.577
 8288SOL     OW29710   2.903   5.261   4.238
 8288SOL    HW129711   2.869   5.315   4.166
 8288SOL    HW229712   2.830   5.254   4.299
 8289SOL     OW29713   2.395   5.532   4.549
 8289SOL    HW129714   2.304   5.502   4.548
 8289SOL    HW229715   2.406   5.578   4.466
 8290SOL     OW29716   3.670   4.839   4.592
 8290SOL    HW129717   3.633   4.776   4.530
 8290SOL    HW229718   3.610   4.837   4.666
 8291SOL     OW29719   3.099   5.258   5.244
 8291SOL    HW129720   3.086   5.195   5.315
 8291SOL    HW229721   3.016   5.258   5.196
 8292SOL     OW29722   2.149   4.673   4.004
 8292SOL    HW129723   2.185   4.663   3.916
 8292SOL    HW229724   2.088   4.601   4.013
 8293SOL     OW29725   3.354   4.480   4.444
 8293SOL    HW129726   3.327   4.429   4.520
 8293SOL    HW229727   3.277   4.534   4.424
 8294SOL     OW29728   2.335   4.990   5.432
 8294SOL    HW129729   2.288   4.983   5.349
 8294SOL    HW229730   2.270   4.971   5.499
 8295SOL     OW29731   3.022   5.503   3.965
 8295SOL    HW129732   2.935   5.491   4.003
 8295SOL    HW229733   3.028   5.435   3.898
 8296SOL     OW29734   2.040   3.972   5.209
 8296SOL    HW129735   1.956   4.015   5.195
 8296SOL    HW229736   2.017   3.889   5.252
 8297SOL     OW29737   3.483   5.098   3.831
 8297SOL    HW129738   3.442   5.184   3.823
 8297SOL    HW229739   3.415   5.036   3.804
 8298SOL     OW29740   2.471   5.517   4.024
 8298SOL    HW129741   2.400   5.488   4.082
 8298SOL    HW229742   2.494   5.439   3.974
 8299SOL     OW29743   3.249   3.821   4.153
 8299SOL    HW129744   3.245   3.794   4.061
 8299SOL    HW229745   3.334   3.790   4.184
 8300SOL     OW29746   2.077   5.484   4.882
 8300SOL    HW129747   2.024   5.465   4.959
 8300SOL    HW229748   2.014   5.509   4.815
 8301SOL     OW29749   2.852   5.359   4.587
 8301SOL    HW129750   2.826   5.337   4.676
 8301SOL    HW229751   2.780   5.329   4.532
 8302SOL     OW29752   2.277   4.388   4.224
 8302SOL    HW129753   2.285   4.295   4.247
 8302SOL    HW229754   2.184   4.407   4.229
 8303SOL     OW29755   3.332   3.934   5.420
 8303SOL    HW129756   3.333   3.939   5.515
 8303SOL    HW229757   3.271   3.864   5.400
 8304SOL     OW29758   2.492   3.849   3.847
 8304SOL    HW129759   2.498   3.761   3.885
 8304SOL    HW229760   2.422   3.842   3.782
 8305SOL     OW29761   2.802   5.291   4.850
 8305SOL    HW129762   2.731   5.234   4.820
 8305SOL    HW229763   2.837   5.248   4.928
 8306SOL     OW29764   3.182   4.298   5.113
 8306SOL    HW129765   3.209   4.266   5.199
 8306SOL    HW229766   3.207   4.390   5.113
 8307SOL     OW29767   2.619   5.134   4.683
 8307SOL    HW129768   2.600   5.090   4.600
 8307SOL    HW229769   2.541   5.186   4.701
 8308SOL     OW29770   2.839   4.228   4.601
 8308SOL    HW129771   2.791   4.230   4.519
 8308SOL    HW229772   2.806   4.151   4.647
 8309SOL     OW29773   2.423   3.797   4.270
 8309SOL    HW129774   2.343   3.784   4.321
 8309SOL    HW229775   2.403   3.869   4.211
 8310SOL     OW29776   3.295   4.900   3.758
 8310SOL    HW129777   3.345   4.834   3.805
 8310SOL    HW229778   3.204   4.872   3.767
 8311SOL     OW29779   2.126   3.780   3.904
 8311SOL    HW129780   2.152   3.867   3.872
 8311SOL    HW229781   2.205   3.746   3.946
 8312SOL     OW29782   2.787   4.031   4.167
 8312SOL    HW129783   2.753   4.039   4.078
 8312SOL    HW229784   2.882   4.026   4.156
 8313SOL     OW29785   2.918   4.409   5.172
 8313SOL    HW129786   2.842   4.354   5.191
 8313SOL    HW229787   2.988   4.347   5.153
 8314SOL     OW29788   3.120   5.367   4.555
 8314SOL    HW129789   3.125   5.435   4.487
 8314SOL    HW229790   3.027   5.362   4.577
 8315SOL     OW29791   2.342   4.836   4.462
 8315SOL    HW129792   2.273   4.831   4.528
 8315SOL    HW229793   2.295   4.836   4.379
 8316SOL     OW29794   3.141   5.548   4.347
 8316SOL    HW129795   3.168   5.605   4.274
 8316SOL    HW229796   3.053   5.578   4.369
 8317SOL     OW29797   2.836   4.250   3.705
 8317SOL    HW129798   2.750   4.265   3.665
 8317SOL    HW229799   2.829   4.291   3.791
 8318SOL     OW29800   2.013   4.287   5.135
 8318SOL    HW129801   2.073   4.286   5.060
 8318SOL    HW229802   1.941   4.230   5.109
 8319SOL     OW29803   2.435   3.979   4.918
 8319SOL    HW129804   2.419   3.935   4.834
 8319SOL    HW229805   2.355   3.964   4.968
 8320SOL     OW29806   2.746   4.249   4.347
 8320SOL    HW129807   2.663   4.296   4.340
 8320SOL    HW229808   2.739   4.176   4.286
 8321SOL     OW29809   2.879   3.747   4.447
 8321SOL    HW129810   2.813   3.754   4.377
 8321SOL    HW229811   2.857   3.664   4.490
 8322SOL     OW29812   3.281   4.808   4.608
 8322SOL    HW129813   3.241   4.732   4.650
 8322SOL    HW229814   3.267   4.793   4.514
 8323SOL     OW29815   3.311   4.323   4.711
 8323SOL    HW129816   3.242   4.274   4.756
 8323SOL    HW229817   3.381   4.330   4.775
 8324SOL     OW29818   3.761   4.517   4.065
 8324SOL    HW129819   3.797   4.471   4.141
 8324SOL    HW229820   3.724   4.448   4.011
 8325SOL     OW29821   3.584   5.144   4.378
 8325SOL    HW129822   3.654   5.080   4.365
 8325SOL    HW229823   3.503   5.093   4.371
 8326SOL     OW29824   3.260   4.253   3.784
 8326SOL    HW129825   3.187   4.252   3.846
 8326SOL    HW229826   3.306   4.171   3.800
 8327SOL     OW29827   2.373   3.984   4.073
 8327SOL    HW129828   2.400   3.925   4.003
 8327SOL    HW229829   2.358   4.068   4.030
 8328SOL     OW29830   3.598   4.960   5.252
 8328SOL    HW129831   3.688   4.927   5.239
 8328SOL    HW229832   3.610   5.047   5.290
 8329SOL     OW29833   2.895   5.128   5.063
 8329SOL    HW129834   2.813   5.087   5.090
 8329SOL    HW229835   2.963   5.063   5.084
 8330SOL     OW29836   3.505   5.370   5.397
 8330SOL    HW129837   3.488   5.405   5.309
 8330SOL    HW229838   3.573   5.304   5.384
 8331SOL     OW29839   2.967   4.933   4.786
 8331SOL    HW129840   2.875   4.918   4.810
 8331SOL    HW229841   2.964   4.958   4.693
 8332SOL     OW29842   3.488   4.821   4.803
 8332SOL    HW129843   3.472   4.888   4.869
 8332SOL    HW229844   3.408   4.821   4.749
 8333SOL     OW29845   2.781   3.795   5.100
 8333SOL    HW129846   2.784   3.762   5.010
 8333SOL    HW229847   2.868   3.830   5.116
 8334SOL     OW29848   2.894   4.836   5.485
 8334SOL    HW129849   2.806   4.874   5.489
 8334SOL    HW229850   2.882   4.755   5.435
 8335SOL     OW29851   2.747   4.778   4.187
 8335SOL    HW129852   2.672   4.739   4.231
 8335SOL    HW229853   2.761   4.724   4.109
 8336SOL     OW29854   2.315   4.519   4.995
 8336SOL    HW129855   2.368   4.515   5.075
 8336SOL    HW229856   2.283   4.430   4.983
 8337SOL     OW29857   3.128   4.180   4.871
 8337SOL    HW129858   3.157   4.219   4.954
 8337SOL    HW229859   3.039   4.150   4.889
 8338SOL     OW29860   1.913   5.425   5.093
 8338SOL    HW129861   1.826   5.442   5.057
 8338SOL    HW229862   1.924   5.331   5.088
 8339SOL     OW29863   2.201   4.835   4.230
 8339SOL    HW129864   2.122   4.887   4.246
 8339SOL    HW229865   2.180   4.780   4.155
 8340SOL     OW29866   2.429   4.349   4.612
 8340SOL    HW129867   2.458   4.358   4.521
 8340SOL    HW229868   2.367   4.421   4.624
 8341SOL     OW29869   3.108   5.119   4.126
 8341SOL    HW129870   3.086   5.097   4.036
 8341SOL    HW229871   3.028   5.158   4.161
 8342SOL     OW29872   3.153   5.132   4.868
 8342SOL    HW129873   3.170   5.123   4.962
 8342SOL    HW229874   3.073   5.083   4.853
 8343SOL     OW29875   3.387   4.333   4.201
 8343SOL    HW129876   3.388   4.376   4.286
 8343SOL    HW229877   3.313   4.371   4.155
 8344SOL     OW29878   2.236   5.182   5.003
 8344SOL    HW129879   2.141   5.172   4.994
 8344SOL    HW229880   2.256   5.142   5.087
 8345SOL     OW29881   2.339   4.397   5.403
 8345SOL    HW129882   2.359   4.437   5.318
 8345SOL    HW229883   2.249   4.368   5.396
 8346SOL     OW29884   3.539   4.524   5.447
 8346SOL    HW129885   3.446   4.540   5.432
 8346SOL    HW229886   3.582   4.555   5.368
 8347SOL     OW29887   2.775   3.768   5.474
 8347SOL    HW129888   2.848   3.822   5.446
 8347SOL    HW229889   2.807   3.678   5.465
 8348SOL     OW29890   2.320   3.835   5.455
 8348SOL    HW129891   2.261   3.768   5.421
 8348SOL    HW229892   2.264   3.911   5.469
 8349SOL     OW29893   2.478   4.664   4.829
 8349SOL    HW129894   2.425   4.658   4.749
 8349SOL    HW229895   2.421   4.631   4.898
 8350SOL     OW29896   3.180   4.574   4.715
 8350SOL    HW129897   3.088   4.548   4.704
 8350SOL    HW229898   3.228   4.491   4.717
 8351SOL     OW29899   3.078   4.247   3.984
 8351SOL    HW129900   3.073   4.164   4.032
 8351SOL    HW229901   3.017   4.305   4.028
 8352SOL     OW29902   2.080   3.899   4.945
 8352SOL    HW129903   2.081   3.914   5.040
 8352SOL    HW229904   2.115   3.811   4.934
 8353SOL     OW29905   1.964   5.170   4.987
 8353SOL    HW129906   1.937   5.112   5.059
 8353SOL    HW229907   1.942   5.120   4.908
 8354SOL     OW29908   2.592   4.405   4.828
 8354SOL    HW129909   2.545   4.365   4.754
 8354SOL    HW229910   2.552   4.491   4.838
 8355SOL     OW29911   3.599   4.693   5.655
 8355SOL    HW129912   3.590   4.626   5.587
 8355SOL    HW229913   3.510   4.706   5.687
 8356SOL     OW29914   2.176   3.785   4.397
 8356SOL    HW129915   2.132   3.870   4.403
 8356SOL    HW229916   2.122   3.727   4.452
 8357SOL     OW29917   3.501   4.126   4.051
 8357SOL    HW129918   3.532   4.063   4.116
 8357SOL    HW229919   3.456   4.194   4.102
 8358SOL     OW29920   2.924   4.479   4.693
 8358SOL    HW129921   2.889   4.499   4.780
 8358SOL    HW229922   2.889   4.392   4.673
 8359SOL     OW29923   2.875   5.330   5.446
 8359SOL    HW129924   2.841   5.370   5.366
 8359SOL    HW229925   2.805   5.272   5.476
 8360SOL     OW29926   3.717   5.206   5.321
 8360SOL    HW129927   3.727   5.238   5.231
 8360SOL    HW229928   3.804   5.217   5.360
 8361SOL     OW29929   2.314   4.653   5.503
 8361SOL    HW129930   2.237   4.690   5.459
 8361SOL    HW229931   2.314   4.561   5.478
 8362SOL     OW29932   3.370   4.001   3.831
 8362SOL    HW129933   3.326   3.921   3.861
 8362SOL    HW229934   3.418   4.032   3.908
 8363SOL     OW29935   3.256   4.528   3.833
 8363SOL    HW129936   3.261   4.434   3.819
 8363SOL    HW229937   3.219   4.562   3.751
 8364SOL     OW29938   2.971   5.038   4.506
 8364SOL    HW129939   2.957   4.953   4.464
 8364SOL    HW229940   2.886   5.082   4.501
 8365SOL     OW29941   2.265   4.560   4.672
 8365SOL    HW129942   2.220   4.628   4.621
 8365SOL    HW229943   2.217   4.557   4.754
 8366SOL     OW29944   2.258   4.142   4.688
 8366SOL    HW129945   2.192   4.132   4.620
 8366SOL    HW229946   2.315   4.212   4.657
 8367SOL     OW29947   2.984   4.078   5.369
 8367SOL    HW129948   2.920   4.112   5.431
 8367SOL    HW229949   3.058   4.137   5.375
 8368SOL     OW29950   3.022   3.933   5.139
 8368SOL    HW129951   3.006   3.983   5.219
 8368SOL    HW229952   2.981   3.985   5.070
 8369SOL     OW29953   1.893   5.061   3.910
 8369SOL    HW129954   1.807   5.082   3.874
 8369SOL    HW229955   1.885   4.970   3.940
 8370SOL     OW29956   1.935   5.522   4.648
 8370SOL    HW129957   1.870   5.454   4.629
 8370SOL    HW229958   2.016   5.489   4.608
 8371SOL     OW29959   2.384   5.272   4.650
 8371SOL    HW129960   2.404   5.356   4.609
 8371SOL    HW229961   2.323   5.230   4.588
 8372SOL     OW29962   2.817   4.528   4.938
 8372SOL    HW129963   2.848   4.495   5.023
 8372SOL    HW229964   2.737   4.478   4.921
 8373SOL     OW29965   1.872   4.213   4.821
 8373SOL    HW129966   1.900   4.280   4.759
 8373SOL    HW229967   1.792   4.248   4.860
 8374SOL     OW29968   2.071   4.301   5.400
 8374SOL    HW129969   2.065   4.297   5.305
 8374SOL    HW229970   1.980   4.307   5.429
 8375SOL     OW29971   3.295   4.617   5.360
 8375SOL    HW129972   3.289   4.713   5.356
 8375SOL    HW229973   3.269   4.588   5.273
 8376SOL     OW29974   2.703   4.317   4.009
 8376SOL    HW129975   2.681   4.229   3.982
 8376SOL    HW229976   2.620   4.364   4.012
 8377SOL     OW29977   3.510   4.337   4.907
 8377SOL    HW129978   3.500   4.279   4.983
 8377SOL    HW229979   3.598   4.320   4.875
 8378SOL     OW29980   2.158   5.276   5.485
 8378SOL    HW129981   2.106   5.347   5.521
 8378SOL    HW229982   2.095   5.221   5.438
 8379SOL     OW29983   2.629   4.162   4.977
 8379SOL    HW129984   2.561   4.096   4.963
 8379SOL    HW229985   2.600   4.238   4.926
 8380SOL     OW29986   2.772   5.442   5.217
 8380SOL    HW129987   2.681   5.423   5.199
 8380SOL    HW229988   2.784   5.532   5.188
 8381SOL     OW29989   2.346   4.212   3.927
 8381SOL    HW129990   2.386   4.296   3.949
 8381SOL    HW229991   2.259   4.235   3.893
 8382SOL     OW29992   3.144   4.760   4.917
 8382SOL    HW129993   3.156   4.691   4.851
 8382SOL    HW229994   3.078   4.819   4.878
 8383SOL     OW29995   3.172   4.539   4.119
 8383SOL    HW129996   3.085   4.500   4.128
 8383SOL    HW229997   3.186   4.544   4.024
 8384SOL     OW29998   3.628   5.434   4.880
 8384SOL    HW129999   3.656   5.479   4.800
 8384SOL    HW230000   3.580   5.358   4.848
 8385SOL     OW30001   3.229   5.454   4.818
 8385SOL    HW130002   3.165   5.426   4.752
 8385SOL    HW230003   3.223   5.388   4.887
 8386SOL     OW30004   1.926   4.936   4.829
 8386SOL    HW130005   1.931   4.889   4.913
 8386SOL    HW230006   1.837   4.918   4.798
 8387SOL     OW30007   2.519   5.427   5.462
 8387SOL    HW130008   2.448   5.484   5.490
 8387SOL    HW230009   2.534   5.451   5.370
 8388SOL     OW30010   3.619   3.932   4.215
 8388SOL    HW130011   3.671   3.904   4.140
 8388SOL    HW230012   3.571   3.853   4.240
 8389SOL     OW30013   3.248   5.296   4.292
 8389SOL    HW130014   3.216   5.254   4.212
 8389SOL    HW230015   3.210   5.383   4.290
 8390SOL     OW30016   2.009   5.491   5.573
 8390SOL    HW130017   1.947   5.433   5.617
 8390SOL    HW230018   2.040   5.550   5.642
 8391SOL     OW30019   3.180   4.709   4.346
 8391SOL    HW130020   3.179   4.655   4.267
 8391SOL    HW230021   3.087   4.726   4.364
 8392SOL     OW30022   2.646   5.013   5.131
 8392SOL    HW130023   2.610   5.062   5.206
 8392SOL    HW230024   2.573   5.006   5.070
 8393SOL     OW30025   2.570   5.311   3.875
 8393SOL    HW130026   2.516   5.314   3.797
 8393SOL    HW230027   2.537   5.235   3.924
 8394SOL     OW30028   3.495   5.461   5.131
 8394SOL    HW130029   3.536   5.453   5.045
 8394SOL    HW230030   3.476   5.555   5.141
 8395SOL     OW30031   3.692   3.858   4.739
 8395SOL    HW130032   3.722   3.770   4.719
 8395SOL    HW230033   3.604   3.863   4.702
 8396SOL     OW30034   2.080   4.039   4.479
 8396SOL    HW130035   2.012   4.078   4.424
 8396SOL    HW230036   2.032   3.992   4.547
 8397SOL     OW30037   3.076   5.322   3.761
 8397SOL    HW130038   3.063   5.236   3.800
 8397SOL    HW230039   3.002   5.333   3.700
 8398SOL     OW30040   2.689   4.727   5.142
 8398SOL    HW130041   2.713   4.713   5.051
 8398SOL    HW230042   2.671   4.821   5.148
 8399SOL     OW30043   2.880   4.628   3.965
 8399SOL    HW130044   2.813   4.612   3.899
 8399SOL    HW230045   2.883   4.548   4.017
 8400SOL     OW30046   3.350   5.365   3.783
 8400SOL    HW130047   3.257   5.345   3.771
 8400SOL    HW230048   3.388   5.359   3.695
 8401SOL     OW30049   2.180   4.966   5.202
 8401SOL    HW130050   2.091   4.989   5.175
 8401SOL    HW230051   2.171   4.880   5.242
 8402SOL     OW30052   3.471   5.022   5.002
 8402SOL    HW130053   3.509   4.986   5.082
 8402SOL    HW230054   3.409   5.088   5.032
 8403SOL     OW30055   2.918   4.790   4.400
 8403SOL    HW130056   2.859   4.756   4.468
 8403SOL    HW230057   2.865   4.792   4.321
 8404SOL     OW30058   2.861   3.919   4.691
 8404SOL    HW130059   2.823   3.890   4.607
 8404SOL    HW230060   2.850   3.844   4.749
 8405SOL     OW30061   2.452   5.218   4.224
 8405SOL    HW130062   2.444   5.174   4.140
 8405SOL    HW230063   2.383   5.285   4.222
 8406SOL     OW30064   3.566   4.122   5.105
 8406SOL    HW130065   3.649   4.087   5.071
 8406SOL    HW230066   3.506   4.047   5.102
 8407SOL     OW30067   2.559   3.874   5.247
 8407SOL    HW130068   2.637   3.865   5.192
 8407SOL    HW230069   2.490   3.828   5.198
 8408SOL     OW30070   1.849   4.083   3.750
 8408SOL    HW130071   1.834   4.027   3.674
 8408SOL    HW230072   1.834   4.172   3.717
 8409SOL     OW30073   3.258   4.568   5.094
 8409SOL    HW130074   3.201   4.629   5.047
 8409SOL    HW230075   3.345   4.585   5.058
 8410SOL     OW30076   3.026   5.070   3.864
 8410SOL    HW130077   2.934   5.093   3.855
 8410SOL    HW230078   3.027   4.974   3.858
 8411SOL     OW30079   2.506   4.511   5.193
 8411SOL    HW130080   2.555   4.593   5.189
 8411SOL    HW230081   2.572   4.443   5.202
 8412SOL     OW30082   3.394   5.491   4.600
 8412SOL    HW130083   3.332   5.443   4.544
 8412SOL    HW230084   3.355   5.486   4.688
 8413SOL     OW30085   2.553   4.238   5.468
 8413SOL    HW130086   2.490   4.308   5.453
 8413SOL    HW230087   2.499   4.163   5.496
 8414SOL     OW30088   3.298   4.892   5.326
 8414SOL    HW130089   3.235   4.944   5.376
 8414SOL    HW230090   3.379   4.942   5.329
 8415SOL     OW30091   2.252   5.452   5.293
 8415SOL    HW130092   2.167   5.491   5.274
 8415SOL    HW230093   2.231   5.375   5.347
 8416SOL     OW30094   3.514   4.606   4.985
 8416SOL    HW130095   3.513   4.520   4.943
 8416SOL    HW230096   3.510   4.668   4.912
 8417SOL     OW30097   3.071   4.036   4.160
 8417SOL    HW130098   3.127   3.958   4.149
 8417SOL    HW230099   3.104   4.078   4.239
 8418SOL     OW30100   2.520   4.415   4.355
 8418SOL    HW130101   2.535   4.510   4.357
 8418SOL    HW230102   2.439   4.404   4.306
 8419SOL     OW30103   3.578   4.070   5.384
 8419SOL    HW130104   3.574   4.097   5.292
 8419SOL    HW230105   3.499   4.017   5.397
 8420SOL     OW30106   3.632   4.659   5.227
 8420SOL    HW130107   3.596   4.746   5.244
 8420SOL    HW230108   3.595   4.634   5.142
 8421SOL     OW30109   2.778   5.151   3.796
 8421SOL    HW130110   2.745   5.073   3.840
 8421SOL    HW230111   2.712   5.219   3.815
 8422SOL     OW30112   2.589   5.641   4.709
 8422SOL    HW130113   2.565   5.731   4.688
 8422SOL    HW230114   2.529   5.586   4.660
 8423SOL     OW30115   2.745   4.713   4.602
 8423SOL    HW130116   2.763   4.630   4.646
 8423SOL    HW230117   2.716   4.771   4.672
 8424SOL     OW30118   3.029   4.802   3.802
 8424SOL    HW130119   2.966   4.811   3.730
 8424SOL    HW230120   2.986   4.743   3.864
 8425SOL     OW30121   3.696   5.275   4.593
 8425SOL    HW130122   3.665   5.228   4.516
 8425SOL    HW230123   3.644   5.239   4.665
 8426SOL     OW30124   2.122   4.922   5.593
 8426SOL    HW130125   2.095   4.843   5.547
 8426SOL    HW230126   2.042   4.953   5.636
 8427SOL     OW30127   2.006   5.012   4.368
 8427SOL    HW130128   1.971   4.956   4.437
 8427SOL    HW230129   2.063   5.074   4.414
 8428SOL     OW30130   2.541   5.155   5.362
 8428SOL    HW130131   2.462   5.107   5.385
 8428SOL    HW230132   2.526   5.244   5.393
 8429SOL     OW30133   3.759   3.938   4.997
 8429SOL    HW130134   3.719   3.867   5.048
 8429SOL    HW230135   3.731   3.921   4.907
 8430SOL     OW30136   2.292   4.129   4.306
 8430SOL    HW130137   2.306   4.069   4.233
 8430SOL    HW230138   2.221   4.089   4.357
 8431SOL     OW30139   3.517   5.195   4.787
 8431SOL    HW130140   3.442   5.172   4.732
 8431SOL    HW230141   3.512   5.135   4.862
 8432SOL     OW30142   2.237   4.256   4.960
 8432SOL    HW130143   2.262   4.193   5.028
 8432SOL    HW230144   2.238   4.205   4.879
 8433SOL     OW30145   2.676   5.271   4.396
 8433SOL    HW130146   2.618   5.317   4.336
 8433SOL    HW230147   2.629   5.190   4.418
 8434SOL     OW30148   3.249   3.845   4.812
 8434SOL    HW130149   3.230   3.753   4.830
 8434SOL    HW230150   3.189   3.893   4.869
 8435SOL     OW30151   2.817   3.693   4.847
 8435SOL    HW130152   2.738   3.705   4.794
 8435SOL    HW230153   2.830   3.599   4.849
 8436SOL     OW30154   2.697   4.988   3.996
 8436SOL    HW130155   2.604   5.009   3.987
 8436SOL    HW230156   2.701   4.925   4.068
 8437SOL     OW30157   3.242   3.758   3.885
 8437SOL    HW130158   3.277   3.679   3.843
 8437SOL    HW230159   3.147   3.745   3.883
 8438SOL     OW30160   3.157   4.165   4.392
 8438SOL    HW130161   3.117   4.251   4.387
 8438SOL    HW230162   3.117   4.124   4.468
 8439SOL     OW30163   1.895   4.788   4.006
 8439SOL    HW130164   1.991   4.783   4.006
 8439SOL    HW230165   1.866   4.698   3.992
 8440SOL     OW30166   2.771   5.427   4.056
 8440SOL    HW130167   2.703   5.392   3.999
 8440SOL    HW230168   2.726   5.490   4.112
 8441SOL     OW30169   2.053   4.287   5.698
 8441SOL    HW130170   2.010   4.203   5.681
 8441SOL    HW230171   2.070   4.324   5.611
 8442SOL     OW30172   2.055   4.054   6.599
 8442SOL    HW130173   2.100   4.008   6.670
 8442SOL    HW230174   1.978   4.001   6.580
 8443SOL     OW30175   1.926   4.144   6.224
 8443SOL    HW130176   1.851   4.186   6.182
 8443SOL    HW230177   1.905   4.051   6.226
 8444SOL     OW30178   2.378   4.977   6.722
 8444SOL    HW130179   2.340   4.908   6.668
 8444SOL    HW230180   2.314   5.048   6.721
 8445SOL     OW30181   3.430   5.251   6.294
 8445SOL    HW130182   3.382   5.227   6.373
 8445SOL    HW230183   3.363   5.259   6.226
 8446SOL     OW30184   3.070   4.419   6.294
 8446SOL    HW130185   3.013   4.495   6.279
 8446SOL    HW230186   3.014   4.355   6.337
 8447SOL     OW30187   3.660   4.280   5.822
 8447SOL    HW130188   3.630   4.281   5.731
 8447SOL    HW230189   3.602   4.217   5.865
 8448SOL     OW30190   2.667   4.840   6.687
 8448SOL    HW130191   2.599   4.786   6.727
 8448SOL    HW230192   2.685   4.798   6.603
 8449SOL     OW30193   2.735   4.555   7.383
 8449SOL    HW130194   2.663   4.598   7.429
 8449SOL    HW230195   2.705   4.465   7.370
 8450SOL     OW30196   2.554   4.685   6.243
 8450SOL    HW130197   2.605   4.679   6.324
 8450SOL    HW230198   2.485   4.747   6.264
 8451SOL     OW30199   2.459   4.903   7.308
 8451SOL    HW130200   2.500   4.981   7.271
 8451SOL    HW230201   2.379   4.936   7.349
 8452SOL     OW30202   2.182   5.164   6.671
 8452SOL    HW130203   2.113   5.098   6.666
 8452SOL    HW230204   2.156   5.230   6.607
 8453SOL     OW30205   3.331   5.214   6.974
 8453SOL    HW130206   3.378   5.297   6.981
 8453SOL    HW230207   3.250   5.228   7.023
 8454SOL     OW30208   2.368   4.133   7.075
 8454SOL    HW130209   2.421   4.054   7.069
 8454SOL    HW230210   2.281   4.102   7.098
 8455SOL     OW30211   3.431   4.143   6.357
 8455SOL    HW130212   3.356   4.132   6.299
 8455SOL    HW230213   3.404   4.212   6.418
 8456SOL     OW30214   2.170   5.459   6.037
 8456SOL    HW130215   2.171   5.529   6.103
 8456SOL    HW230216   2.079   5.452   6.011
 8457SOL     OW30217   3.101   5.007   7.311
 8457SOL    HW130218   3.062   5.019   7.397
 8457SOL    HW230219   3.039   5.048   7.251
 8458SOL     OW30220   2.116   5.154   6.142
 8458SOL    HW130221   2.072   5.239   6.152
 8458SOL    HW230222   2.060   5.093   6.189
 8459SOL     OW30223   2.226   4.835   6.542
 8459SOL    HW130224   2.218   4.742   6.566
 8459SOL    HW230225   2.144   4.874   6.571
 8460SOL     OW30226   2.468   5.550   7.036
 8460SOL    HW130227   2.385   5.518   7.072
 8460SOL    HW230228   2.447   5.574   6.946
 8461SOL     OW30229   2.482   4.762   5.675
 8461SOL    HW130230   2.415   4.730   5.616
 8461SOL    HW230231   2.453   4.850   5.699
 8462SOL     OW30232   3.430   3.722   6.917
 8462SOL    HW130233   3.365   3.783   6.882
 8462SOL    HW230234   3.413   3.719   7.011
 8463SOL     OW30235   2.027   4.382   6.113
 8463SOL    HW130236   1.981   4.303   6.143
 8463SOL    HW230237   2.007   4.448   6.179
 8464SOL     OW30238   3.721   5.454   5.943
 8464SOL    HW130239   3.663   5.461   6.019
 8464SOL    HW230240   3.719   5.541   5.903
 8465SOL     OW30241   1.867   5.327   5.734
 8465SOL    HW130242   1.796   5.263   5.723
 8465SOL    HW230243   1.868   5.345   5.828
 8466SOL     OW30244   3.519   4.696   6.265
 8466SOL    HW130245   3.462   4.618   6.265
 8466SOL    HW230246   3.523   4.722   6.174
 8467SOL     OW30247   3.524   4.825   6.012
 8467SOL    HW130248   3.430   4.827   6.000
 8467SOL    HW230249   3.544   4.901   6.066
 8468SOL     OW30250   1.966   4.474   7.167
 8468SOL    HW130251   1.999   4.550   7.215
 8468SOL    HW230252   1.879   4.500   7.137
 8469SOL     OW30253   2.487   5.139   6.318
 8469SOL    HW130254   2.453   5.050   6.330
 8469SOL    HW230255   2.452   5.167   6.234
 8470SOL     OW30256   3.162   4.943   6.955
 8470SOL    HW130257   3.161   4.872   6.891
 8470SOL    HW230258   3.215   4.910   7.027
 8471SOL     OW30259   2.668   3.755   6.108
 8471SOL    HW130260   2.695   3.842   6.079
 8471SOL    HW230261   2.574   3.763   6.123
 8472SOL     OW30262   2.097   4.689   6.894
 8472SOL    HW130263   2.132   4.642   6.818
 8472SOL    HW230264   2.002   4.687   6.882
 8473SOL     OW30265   3.350   4.691   5.770
 8473SOL    HW130266   3.302   4.633   5.711
 8473SOL    HW230267   3.297   4.691   5.851
 8474SOL     OW30268   3.178   5.632   7.187
 8474SOL    HW130269   3.107   5.688   7.157
 8474SOL    HW230270   3.147   5.543   7.171
 8475SOL     OW30271   2.163   3.993   7.416
 8475SOL    HW130272   2.160   4.016   7.323
 8475SOL    HW230273   2.072   3.997   7.445
 8476SOL     OW30274   3.333   5.136   6.531
 8476SOL    HW130275   3.258   5.164   6.583
 8476SOL    HW230276   3.313   5.046   6.507
 8477SOL     OW30277   3.529   5.493   6.140
 8477SOL    HW130278   3.467   5.471   6.070
 8477SOL    HW230279   3.504   5.437   6.213
 8478SOL     OW30280   2.361   4.500   5.855
 8478SOL    HW130281   2.286   4.549   5.820
 8478SOL    HW230282   2.332   4.468   5.940
 8479SOL     OW30283   3.120   4.100   6.554
 8479SOL    HW130284   3.065   4.152   6.496
 8479SOL    HW230285   3.070   4.020   6.570
 8480SOL     OW30286   3.426   5.412   5.896
 8480SOL    HW130287   3.517   5.393   5.874
 8480SOL    HW230288   3.380   5.413   5.812
 8481SOL     OW30289   2.590   4.309   7.021
 8481SOL    HW130290   2.512   4.257   7.038
 8481SOL    HW230291   2.570   4.355   6.939
 8482SOL     OW30292   3.175   4.283   7.220
 8482SOL    HW130293   3.195   4.284   7.313
 8482SOL    HW230294   3.156   4.191   7.200
 8483SOL     OW30295   2.918   4.618   7.178
 8483SOL    HW130296   2.851   4.604   7.245
 8483SOL    HW230297   2.879   4.684   7.120
 8484SOL     OW30298   2.815   4.167   6.805
 8484SOL    HW130299   2.740   4.109   6.820
 8484SOL    HW230300   2.798   4.207   6.719
 8485SOL     OW30301   2.915   4.419   5.990
 8485SOL    HW130302   2.887   4.364   6.064
 8485SOL    HW230303   2.836   4.429   5.937
 8486SOL     OW30304   1.981   4.571   6.305
 8486SOL    HW130305   1.997   4.589   6.398
 8486SOL    HW230306   1.891   4.598   6.290
 8487SOL     OW30307   1.979   5.564   7.139
 8487SOL    HW130308   1.967   5.551   7.233
 8487SOL    HW230309   1.892   5.552   7.101
 8488SOL     OW30310   2.681   4.077   5.776
 8488SOL    HW130311   2.728   4.093   5.694
 8488SOL    HW230312   2.612   4.015   5.753
 8489SOL     OW30313   3.529   4.294   7.358
 8489SOL    HW130314   3.505   4.384   7.336
 8489SOL    HW230315   3.490   4.241   7.289
 8490SOL     OW30316   3.243   4.839   6.030
 8490SOL    HW130317   3.182   4.773   5.996
 8490SOL    HW230318   3.197   4.922   6.016
 8491SOL     OW30319   2.854   5.187   6.053
 8491SOL    HW130320   2.826   5.247   5.984
 8491SOL    HW230321   2.813   5.220   6.133
 8492SOL     OW30322   2.178   5.581   6.488
 8492SOL    HW130323   2.219   5.540   6.565
 8492SOL    HW230324   2.155   5.669   6.518
 8493SOL     OW30325   3.681   4.791   6.463
 8493SOL    HW130326   3.627   4.763   6.389
 8493SOL    HW230327   3.621   4.790   6.537
 8494SOL     OW30328   3.090   5.272   7.097
 8494SOL    HW130329   3.035   5.304   7.169
 8494SOL    HW230330   3.032   5.216   7.046
 8495SOL     OW30331   2.149   4.655   5.772
 8495SOL    HW130332   2.130   4.661   5.678
 8495SOL    HW230333   2.065   4.671   5.815
 8496SOL     OW30334   3.331   4.486   6.296
 8496SOL    HW130335   3.240   4.458   6.291
 8496SOL    HW230336   3.359   4.461   6.384
 8497SOL     OW30337   2.202   4.971   7.370
 8497SOL    HW130338   2.186   5.014   7.286
 8497SOL    HW230339   2.134   5.006   7.428
 8498SOL     OW30340   3.014   5.472   5.842
 8498SOL    HW130341   2.924   5.457   5.870
 8498SOL    HW230342   3.024   5.421   5.762
 8499SOL     OW30343   2.103   4.041   7.156
 8499SOL    HW130344   2.060   4.112   7.108
 8499SOL    HW230345   2.047   3.965   7.141
 8500SOL     OW30346   3.516   5.149   5.702
 8500SOL    HW130347   3.466   5.226   5.677
 8500SOL    HW230348   3.453   5.077   5.695
 8501SOL     OW30349   2.351   5.484   5.832
 8501SOL    HW130350   2.302   5.476   5.913
 8501SOL    HW230351   2.337   5.402   5.786
 8502SOL     OW30352   3.308   3.851   6.013
 8502SOL    HW130353   3.294   3.809   5.928
 8502SOL    HW230354   3.370   3.794   6.059
 8503SOL     OW30355   2.169   5.490   6.767
 8503SOL    HW130356   2.203   5.419   6.823
 8503SOL    HW230357   2.089   5.454   6.729
 8504SOL     OW30358   2.827   5.382   6.478
 8504SOL    HW130359   2.784   5.327   6.543
 8504SOL    HW230360   2.781   5.363   6.396
 8505SOL     OW30361   2.299   4.379   6.094
 8505SOL    HW130362   2.314   4.288   6.119
 8505SOL    HW230363   2.204   4.389   6.099
 8506SOL     OW30364   3.277   3.910   7.277
 8506SOL    HW130365   3.267   3.897   7.371
 8506SOL    HW230366   3.222   3.842   7.237
 8507SOL     OW30367   2.496   3.867   5.685
 8507SOL    HW130368   2.490   3.810   5.762
 8507SOL    HW230369   2.405   3.886   5.662
 8508SOL     OW30370   2.678   3.988   7.342
 8508SOL    HW130371   2.749   3.925   7.357
 8508SOL    HW230372   2.602   3.950   7.387
 8509SOL     OW30373   2.675   5.123   6.531
 8509SOL    HW130374   2.760   5.106   6.493
 8509SOL    HW230375   2.616   5.134   6.457
 8510SOL     OW30376   2.934   4.200   6.382
 8510SOL    HW130377   2.883   4.200   6.301
 8510SOL    HW230378   2.868   4.193   6.451
 8511SOL     OW30379   2.395   3.816   6.168
 8511SOL    HW130380   2.306   3.796   6.197
 8511SOL    HW230381   2.384   3.857   6.082
 8512SOL     OW30382   3.323   4.958   5.679
 8512SOL    HW130383   3.316   4.866   5.703
 8512SOL    HW230384   3.232   4.991   5.683
 8513SOL     OW30385   2.172   3.840   5.798
 8513SOL    HW130386   2.083   3.872   5.809
 8513SOL    HW230387   2.176   3.761   5.852
 8514SOL     OW30388   2.788   4.004   6.020
 8514SOL    HW130389   2.750   4.023   5.934
 8514SOL    HW230390   2.881   3.992   6.003
 8515SOL     OW30391   2.866   4.342   7.008
 8515SOL    HW130392   2.778   4.338   7.045
 8515SOL    HW230393   2.865   4.278   6.936
 8516SOL     OW30394   3.083   5.302   6.387
 8516SOL    HW130395   3.113   5.375   6.333
 8516SOL    HW230396   3.005   5.336   6.430
 8517SOL     OW30397   2.365   4.883   6.310
 8517SOL    HW130398   2.316   4.867   6.391
 8517SOL    HW230399   2.298   4.890   6.243
 8518SOL     OW30400   3.157   5.536   6.242
 8518SOL    HW130401   3.189   5.595   6.173
 8518SOL    HW230402   3.070   5.568   6.263
 8519SOL     OW30403   2.815   4.203   5.554
 8519SOL    HW130404   2.728   4.224   5.518
 8519SOL    HW230405   2.837   4.279   5.608
 8520SOL     OW30406   1.986   4.240   7.025
 8520SOL    HW130407   1.947   4.248   6.938
 8520SOL    HW230408   1.972   4.326   7.066
 8521SOL     OW30409   2.400   3.943   6.660
 8521SOL    HW130410   2.436   3.854   6.654
 8521SOL    HW230411   2.326   3.935   6.720
 8522SOL     OW30412   2.784   4.244   6.160
 8522SOL    HW130413   2.699   4.288   6.163
 8522SOL    HW230414   2.765   4.158   6.121
 8523SOL     OW30415   2.896   3.716   6.263
 8523SOL    HW130416   2.816   3.728   6.212
 8523SOL    HW230417   2.869   3.664   6.338
 8524SOL     OW30418   3.322   4.868   6.452
 8524SOL    HW130419   3.241   4.822   6.429
 8524SOL    HW230420   3.378   4.858   6.375
 8525SOL     OW30421   3.312   4.310   6.546
 8525SOL    HW130422   3.250   4.239   6.562
 8525SOL    HW230423   3.367   4.311   6.624
 8526SOL     OW30424   3.697   4.515   5.963
 8526SOL    HW130425   3.748   4.478   6.036
 8526SOL    HW230426   3.667   4.438   5.914
 8527SOL     OW30427   2.311   5.229   5.719
 8527SOL    HW130428   2.258   5.166   5.768
 8527SOL    HW230429   2.268   5.235   5.634
 8528SOL     OW30430   3.574   5.030   6.184
 8528SOL    HW130431   3.660   5.029   6.226
 8528SOL    HW230432   3.529   5.105   6.222
 8529SOL     OW30433   3.244   4.250   5.632
 8529SOL    HW130434   3.173   4.253   5.696
 8529SOL    HW230435   3.293   4.171   5.654
 8530SOL     OW30436   2.346   3.993   5.946
 8530SOL    HW130437   2.291   3.934   5.895
 8530SOL    HW230438   2.345   4.075   5.896
 8531SOL     OW30439   3.611   4.954   7.111
 8531SOL    HW130440   3.701   4.921   7.111
 8531SOL    HW230441   3.617   5.042   7.148
 8532SOL     OW30442   2.926   5.076   6.995
 8532SOL    HW130443   2.852   5.015   6.992
 8532SOL    HW230444   3.002   5.022   6.973
 8533SOL     OW30445   3.499   5.364   7.269
 8533SOL    HW130446   3.477   5.399   7.182
 8533SOL    HW230447   3.567   5.299   7.251
 8534SOL     OW30448   2.949   4.929   6.691
 8534SOL    HW130449   2.859   4.897   6.704
 8534SOL    HW230450   2.945   4.981   6.611
 8535SOL     OW30451   3.489   4.803   6.668
 8535SOL    HW130452   3.479   4.871   6.735
 8535SOL    HW230453   3.418   4.821   6.606
 8536SOL     OW30454   2.774   3.818   6.971
 8536SOL    HW130455   2.770   3.789   6.880
 8536SOL    HW230456   2.864   3.847   6.984
 8537SOL     OW30457   2.563   4.733   5.971
 8537SOL    HW130458   2.478   4.773   5.954
 8537SOL    HW230459   2.565   4.717   6.065
 8538SOL     OW30460   2.339   4.480   6.956
 8538SOL    HW130461   2.408   4.478   6.891
 8538SOL    HW230462   2.273   4.419   6.924
 8539SOL     OW30463   3.074   4.084   6.825
 8539SOL    HW130464   2.981   4.104   6.822
 8539SOL    HW230465   3.105   4.104   6.736
 8540SOL     OW30466   1.964   5.346   6.932
 8540SOL    HW130467   1.872   5.368   6.945
 8540SOL    HW230468   2.012   5.411   6.984
 8541SOL     OW30469   2.312   4.836   5.918
 8541SOL    HW130470   2.266   4.919   5.909
 8541SOL    HW230471   2.260   4.774   5.867
 8542SOL     OW30472   3.104   5.080   5.997
 8542SOL    HW130473   3.156   5.152   6.032
 8542SOL    HW230474   3.014   5.102   6.019
 8543SOL     OW30475   3.149   5.182   6.739
 8543SOL    HW130476   3.196   5.172   6.822
 8543SOL    HW230477   3.078   5.118   6.744
 8544SOL     OW30478   3.374   4.354   6.045
 8544SOL    HW130479   3.371   4.400   6.129
 8544SOL    HW230480   3.309   4.399   5.990
 8545SOL     OW30481   2.278   5.269   6.905
 8545SOL    HW130482   2.235   5.227   6.831
 8545SOL    HW230483   2.249   5.220   6.981
 8546SOL     OW30484   2.347   4.458   7.237
 8546SOL    HW130485   2.339   4.446   7.143
 8546SOL    HW230486   2.280   4.401   7.274
 8547SOL     OW30487   3.454   4.539   7.261
 8547SOL    HW130488   3.364   4.560   7.240
 8547SOL    HW230489   3.506   4.576   7.190
 8548SOL     OW30490   2.914   3.836   7.367
 8548SOL    HW130491   2.948   3.919   7.333
 8548SOL    HW230492   2.963   3.769   7.319
 8549SOL     OW30493   2.273   3.743   7.347
 8549SOL    HW130494   2.200   3.681   7.351
 8549SOL    HW230495   2.232   3.829   7.351
 8550SOL     OW30496   3.175   4.554   6.574
 8550SOL    HW130497   3.082   4.537   6.567
 8550SOL    HW230498   3.217   4.468   6.564
 8551SOL     OW30499   3.062   4.245   5.831
 8551SOL    HW130500   3.057   4.163   5.881
 8551SOL    HW230501   3.009   4.307   5.882
 8552SOL     OW30502   2.166   3.917   6.819
 8552SOL    HW130503   2.077   3.935   6.849
 8552SOL    HW230504   2.170   3.822   6.813
 8553SOL     OW30505   2.014   5.077   6.923
 8553SOL    HW130506   1.948   5.042   6.983
 8553SOL    HW230507   1.992   5.170   6.914
 8554SOL     OW30508   3.602   4.666   7.456
 8554SOL    HW130509   3.549   4.622   7.389
 8554SOL    HW230510   3.557   4.648   7.538
 8555SOL     OW30511   2.111   3.763   6.244
 8555SOL    HW130512   2.056   3.824   6.195
 8555SOL    HW230513   2.051   3.722   6.307
 8556SOL     OW30514   3.468   4.111   5.955
 8556SOL    HW130515   3.416   4.042   5.995
 8556SOL    HW230516   3.431   4.193   5.987
 8557SOL     OW30517   2.906   4.500   6.588
 8557SOL    HW130518   2.877   4.531   6.674
 8557SOL    HW230519   2.857   4.420   6.573
 8558SOL     OW30520   2.896   5.327   7.288
 8558SOL    HW130521   2.842   5.374   7.225
 8558SOL    HW230522   2.836   5.266   7.331
 8559SOL     OW30523   3.712   5.199   7.196
 8559SOL    HW130524   3.744   5.240   7.115
 8559SOL    HW230525   3.786   5.205   7.256
 8560SOL     OW30526   2.232   4.709   7.446
 8560SOL    HW130527   2.222   4.804   7.439
 8560SOL    HW230528   2.150   4.674   7.410
 8561SOL     OW30529   3.366   4.009   5.700
 8561SOL    HW130530   3.321   3.928   5.725
 8561SOL    HW230531   3.412   4.036   5.780
 8562SOL     OW30532   3.212   4.526   5.603
 8562SOL    HW130533   3.219   4.431   5.609
 8562SOL    HW230534   3.228   4.546   5.511
 8563SOL     OW30535   2.936   5.079   6.461
 8563SOL    HW130536   2.934   5.002   6.404
 8563SOL    HW230537   2.997   5.139   6.419
 8564SOL     OW30538   2.238   4.574   6.621
 8564SOL    HW130539   2.332   4.562   6.609
 8564SOL    HW230540   2.202   4.485   6.616
 8565SOL     OW30541   2.940   4.087   7.240
 8565SOL    HW130542   2.845   4.079   7.231
 8565SOL    HW230543   2.952   4.158   7.303
 8566SOL     OW30544   3.025   3.919   7.036
 8566SOL    HW130545   3.002   3.979   7.108
 8566SOL    HW230546   3.051   3.976   6.964
 8567SOL     OW30547   1.892   4.985   5.752
 8567SOL    HW130548   1.824   5.044   5.719
 8567SOL    HW230549   1.847   4.902   5.767
 8568SOL     OW30550   1.979   5.404   6.577
 8568SOL    HW130551   1.924   5.355   6.516
 8568SOL    HW230552   2.030   5.463   6.521
 8569SOL     OW30553   2.447   5.341   6.533
 8569SOL    HW130554   2.466   5.428   6.498
 8569SOL    HW230555   2.434   5.287   6.455
 8570SOL     OW30556   2.790   4.554   6.835
 8570SOL    HW130557   2.819   4.483   6.892
 8570SOL    HW230558   2.701   4.530   6.809
 8571SOL     OW30559   1.947   4.274   6.747
 8571SOL    HW130560   1.958   4.208   6.679
 8571SOL    HW230561   1.855   4.300   6.741
 8572SOL     OW30562   2.119   4.310   7.325
 8572SOL    HW130563   2.103   4.221   7.294
 8572SOL    HW230564   2.056   4.364   7.278
 8573SOL     OW30565   3.185   4.635   7.239
 8573SOL    HW130566   3.228   4.717   7.215
 8573SOL    HW230567   3.091   4.653   7.231
 8574SOL     OW30568   2.658   4.375   5.878
 8574SOL    HW130569   2.645   4.286   5.846
 8574SOL    HW230570   2.618   4.376   5.965
 8575SOL     OW30571   3.495   4.316   6.754
 8575SOL    HW130572   3.495   4.251   6.825
 8575SOL    HW230573   3.584   4.313   6.719
 8576SOL     OW30574   2.176   5.293   7.385
 8576SOL    HW130575   2.128   5.375   7.396
 8576SOL    HW230576   2.119   5.226   7.420
 8577SOL     OW30577   2.753   5.464   7.093
 8577SOL    HW130578   2.688   5.421   7.037
 8577SOL    HW230579   2.744   5.557   7.072
 8578SOL     OW30580   2.314   4.225   5.800
 8578SOL    HW130581   2.337   4.318   5.806
 8578SOL    HW230582   2.226   4.225   5.764
 8579SOL     OW30583   2.217   4.761   7.130
 8579SOL    HW130584   2.139   4.760   7.185
 8579SOL    HW230585   2.186   4.732   7.044
 8580SOL     OW30586   3.140   4.745   6.767
 8580SOL    HW130587   3.159   4.688   6.692
 8580SOL    HW230588   3.072   4.805   6.736
 8581SOL     OW30589   3.109   4.618   5.941
 8581SOL    HW130590   3.046   4.551   5.967
 8581SOL    HW230591   3.073   4.656   5.861
 8582SOL     OW30592   3.654   5.414   6.774
 8582SOL    HW130593   3.650   5.480   6.704
 8582SOL    HW230594   3.620   5.334   6.734
 8583SOL     OW30595   3.132   5.475   6.688
 8583SOL    HW130596   3.195   5.482   6.617
 8583SOL    HW230597   3.128   5.382   6.708
 8584SOL     OW30598   2.001   4.958   6.646
 8584SOL    HW130599   1.963   4.977   6.732
 8584SOL    HW230600   1.928   4.925   6.594
 8585SOL     OW30601   2.523   5.417   7.291
 8585SOL    HW130602   2.458   5.478   7.326
 8585SOL    HW230603   2.545   5.453   7.205
 8586SOL     OW30604   3.690   3.875   6.116
 8586SOL    HW130605   3.702   3.883   6.021
 8586SOL    HW230606   3.624   3.806   6.126
 8587SOL     OW30607   3.253   5.305   6.088
 8587SOL    HW130608   3.295   5.339   6.009
 8587SOL    HW230609   3.195   5.375   6.117
 8588SOL     OW30610   2.015   5.517   7.411
 8588SOL    HW130611   1.964   5.451   7.458
 8588SOL    HW230612   2.052   5.572   7.481
 8589SOL     OW30613   3.155   4.723   6.274
 8589SOL    HW130614   3.210   4.644   6.276
 8589SOL    HW230615   3.179   4.766   6.192
 8590SOL     OW30616   2.577   4.990   6.963
 8590SOL    HW130617   2.565   5.053   7.034
 8590SOL    HW230618   2.495   4.940   6.961
 8591SOL     OW30619   2.583   5.295   5.694
 8591SOL    HW130620   2.573   5.347   5.614
 8591SOL    HW230621   2.496   5.259   5.711
 8592SOL     OW30622   3.490   5.448   7.000
 8592SOL    HW130623   3.544   5.438   6.922
 8592SOL    HW230624   3.467   5.541   7.002
 8593SOL     OW30625   3.707   3.854   6.465
 8593SOL    HW130626   3.730   3.767   6.498
 8593SOL    HW230627   3.617   3.868   6.495
 8594SOL     OW30628   2.163   4.142   6.366
 8594SOL    HW130629   2.088   4.155   6.309
 8594SOL    HW230630   2.125   4.110   6.448
 8595SOL     OW30631   3.091   5.333   5.611
 8595SOL    HW130632   3.080   5.246   5.648
 8595SOL    HW230633   3.019   5.341   5.548
 8596SOL     OW30634   2.801   4.789   6.991
 8596SOL    HW130635   2.797   4.725   6.920
 8596SOL    HW230636   2.715   4.831   6.989
 8597SOL     OW30637   3.360   5.377   5.631
 8597SOL    HW130638   3.268   5.359   5.611
 8597SOL    HW230639   3.402   5.383   5.545
 8598SOL     OW30640   2.231   5.042   7.089
 8598SOL    HW130641   2.153   5.054   7.035
 8598SOL    HW230642   2.238   4.947   7.097
 8599SOL     OW30643   3.480   5.003   6.868
 8599SOL    HW130644   3.525   4.978   6.949
 8599SOL    HW230645   3.412   5.065   6.896
 8600SOL     OW30646   2.910   4.833   6.354
 8600SOL    HW130647   2.841   4.769   6.373
 8600SOL    HW230648   2.984   4.780   6.325
 8601SOL     OW30649   2.909   3.928   6.604
 8601SOL    HW130650   2.837   3.979   6.567
 8601SOL    HW230651   2.867   3.848   6.635
 8602SOL     OW30652   2.385   5.209   6.077
 8602SOL    HW130653   2.387   5.218   5.982
 8602SOL    HW230654   2.292   5.200   6.098
 8603SOL     OW30655   3.654   4.079   6.985
 8603SOL    HW130656   3.712   4.149   6.955
 8603SOL    HW230657   3.644   4.022   6.909
 8604SOL     OW30658   2.151   5.063   5.880
 8604SOL    HW130659   2.069   5.040   5.836
 8604SOL    HW230660   2.123   5.094   5.966
 8605SOL     OW30661   1.995   4.719   7.291
 8605SOL    HW130662   1.923   4.718   7.228
 8605SOL    HW230663   1.959   4.764   7.368
 8606SOL     OW30664   2.552   3.924   7.094
 8606SOL    HW130665   2.626   3.888   7.045
 8606SOL    HW230666   2.589   3.950   7.179
 8607SOL     OW30667   1.937   4.046   5.635
 8607SOL    HW130668   1.911   3.988   5.706
 8607SOL    HW230669   1.869   4.035   5.569
 8608SOL     OW30670   3.199   4.542   6.945
 8608SOL    HW130671   3.164   4.610   6.888
 8608SOL    HW230672   3.293   4.542   6.927
 8609SOL     OW30673   1.905   3.885   5.860
 8609SOL    HW130674   1.833   3.933   5.901
 8609SOL    HW230675   1.895   3.795   5.892
 8610SOL     OW30676   3.067   5.079   5.717
 8610SOL    HW130677   2.972   5.081   5.704
 8610SOL    HW230678   3.079   5.070   5.811
 8611SOL     OW30679   2.519   4.654   7.066
 8611SOL    HW130680   2.442   4.618   7.021
 8611SOL    HW230681   2.590   4.596   7.040
 8612SOL     OW30682   3.314   5.535   6.483
 8612SOL    HW130683   3.266   5.530   6.400
 8612SOL    HW230684   3.360   5.619   6.479
 8613SOL     OW30685   2.652   4.287   7.343
 8613SOL    HW130686   2.572   4.313   7.296
 8613SOL    HW230687   2.645   4.191   7.349
 8614SOL     OW30688   3.306   4.876   7.187
 8614SOL    HW130689   3.241   4.930   7.233
 8614SOL    HW230690   3.385   4.931   7.184
 8615SOL     OW30691   2.238   5.473   7.174
 8615SOL    HW130692   2.151   5.510   7.155
 8615SOL    HW230693   2.220   5.397   7.229
 8616SOL     OW30694   3.471   4.582   6.849
 8616SOL    HW130695   3.478   4.498   6.804
 8616SOL    HW230696   3.470   4.647   6.778
 8617SOL     OW30697   3.085   4.030   6.005
 8617SOL    HW130698   3.144   3.956   5.994
 8617SOL    HW230699   3.115   4.073   6.084
 8618SOL     OW30700   2.565   4.421   6.139
 8618SOL    HW130701   2.568   4.509   6.177
 8618SOL    HW230702   2.472   4.402   6.129
 8619SOL     OW30703   3.520   4.041   7.230
 8619SOL    HW130704   3.551   4.042   7.139
 8619SOL    HW230705   3.438   3.992   7.226
 8620SOL     OW30706   3.609   4.664   7.073
 8620SOL    HW130707   3.589   4.757   7.080
 8620SOL    HW230708   3.567   4.636   6.992
 8621SOL     OW30709   2.800   5.120   5.689
 8621SOL    HW130710   2.771   5.051   5.749
 8621SOL    HW230711   2.726   5.181   5.685
 8622SOL     OW30712   2.523   5.595   6.449
 8622SOL    HW130713   2.493   5.669   6.500
 8622SOL    HW230714   2.516   5.623   6.358
 8623SOL     OW30715   2.704   4.656   6.477
 8623SOL    HW130716   2.778   4.601   6.505
 8623SOL    HW230717   2.628   4.612   6.514
 8624SOL     OW30718   3.042   4.729   5.702
 8624SOL    HW130719   2.981   4.774   5.643
 8624SOL    HW230720   3.078   4.657   5.648
 8625SOL     OW30721   3.668   5.281   6.433
 8625SOL    HW130722   3.589   5.275   6.379
 8625SOL    HW230723   3.646   5.232   6.512
 8626SOL     OW30724   1.938   4.984   6.268
 8626SOL    HW130725   1.927   4.936   6.350
 8626SOL    HW230726   1.849   4.997   6.235
 8627SOL     OW30727   2.483   5.150   7.175
 8627SOL    HW130728   2.390   5.136   7.156
 8627SOL    HW230729   2.486   5.234   7.221
 8628SOL     OW30730   3.616   3.902   6.781
 8628SOL    HW130731   3.589   3.819   6.821
 8628SOL    HW230732   3.561   3.911   6.704
 8629SOL     OW30733   2.373   4.128   6.185
 8629SOL    HW130734   2.371   4.072   6.107
 8629SOL    HW230735   2.289   4.111   6.228
 8630SOL     OW30736   3.564   5.177   6.668
 8630SOL    HW130737   3.481   5.171   6.620
 8630SOL    HW230738   3.555   5.113   6.739
 8631SOL     OW30739   2.207   4.277   6.835
 8631SOL    HW130740   2.216   4.198   6.887
 8631SOL    HW230741   2.115   4.278   6.807
 8632SOL     OW30742   2.701   5.333   6.241
 8632SOL    HW130743   2.686   5.416   6.196
 8632SOL    HW230744   2.615   5.290   6.240
 8633SOL     OW30745   3.242   3.858   6.766
 8633SOL    HW130746   3.188   3.780   6.751
 8633SOL    HW230747   3.178   3.925   6.791
 8634SOL     OW30748   2.769   3.706   6.719
 8634SOL    HW130749   2.686   3.715   6.673
 8634SOL    HW230750   2.780   3.611   6.730
 8635SOL     OW30751   2.731   4.952   5.893
 8635SOL    HW130752   2.675   4.880   5.919
 8635SOL    HW230753   2.745   5.002   5.974
 8636SOL     OW30754   2.525   5.278   6.785
 8636SOL    HW130755   2.448   5.290   6.841
 8636SOL    HW230756   2.499   5.312   6.700
 8637SOL     OW30757   3.249   3.767   5.756
 8637SOL    HW130758   3.285   3.690   5.712
 8637SOL    HW230759   3.159   3.743   5.777
 8638SOL     OW30760   3.176   4.158   6.236
 8638SOL    HW130761   3.153   4.250   6.227
 8638SOL    HW230762   3.106   4.121   6.291
 8639SOL     OW30763   3.449   3.922   6.555
 8639SOL    HW130764   3.368   3.915   6.605
 8639SOL    HW230765   3.431   3.990   6.490
 8640SOL     OW30766   1.928   4.687   5.942
 8640SOL    HW130767   1.979   4.706   6.021
 8640SOL    HW230768   1.843   4.727   5.959
 8641SOL     OW30769   2.750   5.396   5.897
 8641SOL    HW130770   2.690   5.366   5.829
 8641SOL    HW230771   2.701   5.461   5.946
 8642SOL     OW30772   2.067   4.341   7.608
 8642SOL    HW130773   1.980   4.303   7.617
 8642SOL    HW230774   2.082   4.346   7.513
 8643SOL     OW30775   2.114   4.009   8.420
 8643SOL    HW130776   2.148   3.976   8.503
 8643SOL    HW230777   2.024   3.975   8.416
 8644SOL     OW30778   1.836   4.129   8.097
 8644SOL    HW130779   1.756   4.156   8.141
 8644SOL    HW230780   1.811   4.050   8.049
 8645SOL     OW30781   2.455   5.013   8.654
 8645SOL    HW130782   2.369   5.009   8.612
 8645SOL    HW230783   2.467   5.106   8.675
 8646SOL     OW30784   3.401   5.272   8.181
 8646SOL    HW130785   3.355   5.247   8.261
 8646SOL    HW230786   3.334   5.276   8.114
 8647SOL     OW30787   3.007   4.373   8.120
 8647SOL    HW130788   3.041   4.462   8.118
 8647SOL    HW230789   2.921   4.381   8.162
 8648SOL     OW30790   3.650   4.232   7.620
 8648SOL    HW130791   3.594   4.301   7.585
 8648SOL    HW230792   3.603   4.198   7.696
 8649SOL     OW30793   2.607   4.835   8.510
 8649SOL    HW130794   2.541   4.875   8.566
 8649SOL    HW230795   2.637   4.906   8.454
 8650SOL     OW30796   2.697   4.464   9.303
 8650SOL    HW130797   2.638   4.503   9.368
 8650SOL    HW230798   2.731   4.538   9.253
 8651SOL     OW30799   2.575   4.697   8.076
 8651SOL    HW130800   2.635   4.698   8.151
 8651SOL    HW230801   2.504   4.756   8.100
 8652SOL     OW30802   2.590   4.885   9.276
 8652SOL    HW130803   2.632   4.964   9.309
 8652SOL    HW230804   2.509   4.917   9.236
 8653SOL     OW30805   2.234   5.095   8.509
 8653SOL    HW130806   2.157   5.049   8.478
 8653SOL    HW230807   2.254   5.157   8.439
 8654SOL     OW30808   3.300   5.223   8.865
 8654SOL    HW130809   3.356   5.262   8.932
 8654SOL    HW230810   3.213   5.224   8.902
 8655SOL     OW30811   2.282   4.141   8.955
 8655SOL    HW130812   2.353   4.077   8.963
 8655SOL    HW230813   2.204   4.093   8.984
 8656SOL     OW30814   3.370   4.066   8.294
 8656SOL    HW130815   3.312   4.087   8.221
 8656SOL    HW230816   3.372   4.147   8.346
 8657SOL     OW30817   2.195   5.458   7.909
 8657SOL    HW130818   2.193   5.531   7.971
 8657SOL    HW230819   2.105   5.450   7.878
 8658SOL     OW30820   3.017   5.040   9.130
 8658SOL    HW130821   3.043   5.055   9.221
 8658SOL    HW230822   2.957   4.966   9.133
 8659SOL     OW30823   2.058   5.147   7.953
 8659SOL    HW130824   2.019   5.230   7.978
 8659SOL    HW230825   2.012   5.082   8.006
 8660SOL     OW30826   2.201   4.773   8.342
 8660SOL    HW130827   2.165   4.688   8.366
 8660SOL    HW230828   2.139   4.836   8.380
 8661SOL     OW30829   2.490   5.475   8.888
 8661SOL    HW130830   2.398   5.464   8.911
 8661SOL    HW230831   2.503   5.570   8.883
 8662SOL     OW30832   2.512   4.655   7.521
 8662SOL    HW130833   2.417   4.660   7.531
 8662SOL    HW230834   2.546   4.687   7.605
 8663SOL     OW30835   3.301   3.810   8.890
 8663SOL    HW130836   3.235   3.879   8.897
 8663SOL    HW230837   3.269   3.741   8.947
 8664SOL     OW30838   1.976   4.354   8.013
 8664SOL    HW130839   1.926   4.276   8.036
 8664SOL    HW230840   1.961   4.415   8.085
 8665SOL     OW30841   3.726   5.453   7.725
 8665SOL    HW130842   3.792   5.432   7.791
 8665SOL    HW230843   3.724   5.549   7.723
 8666SOL     OW30844   3.521   4.655   8.113
 8666SOL    HW130845   3.597   4.610   8.076
 8666SOL    HW230846   3.494   4.716   8.044
 8667SOL     OW30847   3.529   4.861   7.914
 8667SOL    HW130848   3.623   4.847   7.905
 8667SOL    HW230849   3.521   4.933   7.976
 8668SOL     OW30850   1.969   4.355   9.101
 8668SOL    HW130851   2.061   4.381   9.098
 8668SOL    HW230852   1.923   4.434   9.132
 8669SOL     OW30853   2.494   5.124   8.156
 8669SOL    HW130854   2.459   5.035   8.161
 8669SOL    HW230855   2.450   5.163   8.080
 8670SOL     OW30856   3.135   4.952   8.838
 8670SOL    HW130857   3.169   4.872   8.797
 8670SOL    HW230858   3.168   4.949   8.928
 8671SOL     OW30859   2.725   3.755   7.944
 8671SOL    HW130860   2.748   3.848   7.939
 8671SOL    HW230861   2.631   3.754   7.962
 8672SOL     OW30862   2.037   4.663   8.760
 8672SOL    HW130863   2.104   4.605   8.726
 8672SOL    HW230864   1.954   4.618   8.741
 8673SOL     OW30865   3.416   4.651   7.667
 8673SOL    HW130866   3.359   4.618   7.597
 8673SOL    HW230867   3.374   4.621   7.748
 8674SOL     OW30868   3.082   5.543   9.021
 8674SOL    HW130869   3.020   5.581   9.083
 8674SOL    HW230870   3.072   5.448   9.031
 8675SOL     OW30871   2.315   3.980   9.297
 8675SOL    HW130872   2.322   4.062   9.347
 8675SOL    HW230873   2.257   3.926   9.350
 8676SOL     OW30874   3.314   5.162   8.426
 8676SOL    HW130875   3.246   5.187   8.488
 8676SOL    HW230876   3.294   5.071   8.403
 8677SOL     OW30877   3.494   5.540   8.004
 8677SOL    HW130878   3.482   5.477   7.932
 8677SOL    HW230879   3.478   5.489   8.083
 8678SOL     OW30880   3.094   4.031   8.395
 8678SOL    HW130881   3.003   4.002   8.392
 8678SOL    HW230882   3.098   4.091   8.470
 8679SOL     OW30883   3.457   5.394   7.771
 8679SOL    HW130884   3.550   5.411   7.753
 8679SOL    HW230885   3.416   5.390   7.684
 8680SOL     OW30886   2.594   4.300   8.869
 8680SOL    HW130887   2.590   4.271   8.959
 8680SOL    HW230888   2.553   4.230   8.818
 8681SOL     OW30889   3.274   4.208   9.114
 8681SOL    HW130890   3.267   4.252   9.199
 8681SOL    HW230891   3.311   4.122   9.135
 8682SOL     OW30892   2.802   4.619   8.993
 8682SOL    HW130893   2.839   4.534   8.971
 8682SOL    HW230894   2.775   4.656   8.908
 8683SOL     OW30895   2.901   4.106   8.727
 8683SOL    HW130896   2.866   4.181   8.775
 8683SOL    HW230897   2.844   4.034   8.751
 8684SOL     OW30898   2.918   4.403   7.856
 8684SOL    HW130899   2.933   4.374   7.946
 8684SOL    HW230900   2.830   4.371   7.836
 8685SOL     OW30901   1.972   4.544   8.204
 8685SOL    HW130902   2.011   4.539   8.292
 8685SOL    HW230903   1.898   4.603   8.215
 8686SOL     OW30904   1.969   5.540   8.974
 8686SOL    HW130905   1.972   5.530   9.069
 8686SOL    HW230906   1.913   5.617   8.960
 8687SOL     OW30907   2.659   4.048   7.671
 8687SOL    HW130908   2.655   4.009   7.584
 8687SOL    HW230909   2.575   4.025   7.711
 8688SOL     OW30910   3.609   4.252   9.250
 8688SOL    HW130911   3.569   4.334   9.219
 8688SOL    HW230912   3.618   4.199   9.171
 8689SOL     OW30913   3.183   4.884   8.081
 8689SOL    HW130914   3.185   4.945   8.007
 8689SOL    HW230915   3.090   4.863   8.094
 8690SOL     OW30916   2.456   3.874   8.372
 8690SOL    HW130917   2.454   3.884   8.467
 8690SOL    HW230918   2.366   3.893   8.344
 8691SOL     OW30919   2.854   5.184   7.919
 8691SOL    HW130920   2.831   5.252   7.855
 8691SOL    HW230921   2.814   5.213   8.001
 8692SOL     OW30922   2.199   5.524   8.321
 8692SOL    HW130923   2.239   5.437   8.324
 8692SOL    HW230924   2.259   5.580   8.370
 8693SOL     OW30925   3.648   4.789   8.316
 8693SOL    HW130926   3.581   4.751   8.259
 8693SOL    HW230927   3.602   4.807   8.398
 8694SOL     OW30928   3.044   5.259   8.959
 8694SOL    HW130929   3.035   5.186   9.020
 8694SOL    HW230930   2.954   5.290   8.945
 8695SOL     OW30931   2.108   4.668   7.732
 8695SOL    HW130932   2.144   4.687   7.646
 8695SOL    HW230933   2.028   4.720   7.737
 8696SOL     OW30934   3.365   4.431   8.183
 8696SOL    HW130935   3.344   4.395   8.269
 8696SOL    HW230936   3.422   4.506   8.202
 8697SOL     OW30937   2.361   5.003   9.163
 8697SOL    HW130938   2.329   5.015   9.074
 8697SOL    HW230939   2.282   4.997   9.217
 8698SOL     OW30940   3.020   5.495   7.673
 8698SOL    HW130941   2.936   5.475   7.713
 8698SOL    HW230942   3.032   5.427   7.606
 8699SOL     OW30943   2.004   4.034   8.985
 8699SOL    HW130944   1.913   4.026   8.957
 8699SOL    HW230945   2.034   3.944   8.997
 8700SOL     OW30946   3.475   5.104   7.567
 8700SOL    HW130947   3.445   5.195   7.561
 8700SOL    HW230948   3.403   5.052   7.531
 8701SOL     OW30949   2.376   5.481   7.705
 8701SOL    HW130950   2.327   5.475   7.787
 8701SOL    HW230951   2.372   5.393   7.668
 8702SOL     OW30952   3.259   3.833   7.848
 8702SOL    HW130953   3.254   3.810   7.755
 8702SOL    HW230954   3.330   3.778   7.882
 8703SOL     OW30955   2.117   5.530   8.639
 8703SOL    HW130956   2.149   5.444   8.666
 8703SOL    HW230957   2.049   5.510   8.574
 8704SOL     OW30958   2.815   5.406   8.370
 8704SOL    HW130959   2.793   5.348   8.442
 8704SOL    HW230960   2.780   5.362   8.292
 8705SOL     OW30961   2.245   4.402   7.953
 8705SOL    HW130962   2.272   4.311   7.953
 8705SOL    HW230963   2.180   4.408   8.023
 8706SOL     OW30964   2.490   3.856   7.483
 8706SOL    HW130965   2.478   3.806   7.564
 8706SOL    HW230966   2.424   3.821   7.423
 8707SOL     OW30967   2.584   3.997   9.244
 8707SOL    HW130968   2.599   3.924   9.302
 8707SOL    HW230969   2.490   4.015   9.250
 8708SOL     OW30970   2.745   5.234   8.570
 8708SOL    HW130971   2.708   5.166   8.514
 8708SOL    HW230972   2.800   5.186   8.632
 8709SOL     OW30973   3.258   4.294   8.844
 8709SOL    HW130974   3.266   4.264   8.935
 8709SOL    HW230975   3.259   4.390   8.851
 8710SOL     OW30976   2.677   5.060   8.365
 8710SOL    HW130977   2.762   5.062   8.321
 8710SOL    HW230978   2.614   5.083   8.297
 8711SOL     OW30979   2.780   4.223   8.379
 8711SOL    HW130980   2.750   4.226   8.288
 8711SOL    HW230981   2.793   4.129   8.396
 8712SOL     OW30982   2.456   3.792   7.966
 8712SOL    HW130983   2.384   3.780   8.027
 8712SOL    HW230984   2.445   3.881   7.932
 8713SOL     OW30985   3.284   4.905   7.560
 8713SOL    HW130986   3.248   4.827   7.518
 8713SOL    HW230987   3.208   4.961   7.577
 8714SOL     OW30988   2.141   3.797   7.619
 8714SOL    HW130989   2.172   3.866   7.560
 8714SOL    HW230990   2.221   3.756   7.651
 8715SOL     OW30991   2.803   4.025   7.909
 8715SOL    HW130992   2.765   4.036   7.822
 8715SOL    HW230993   2.898   4.030   7.895
 8716SOL     OW30994   2.863   4.355   8.892
 8716SOL    HW130995   2.772   4.333   8.912
 8716SOL    HW230996   2.914   4.305   8.956
 8717SOL     OW30997   3.084   5.286   8.223
 8717SOL    HW130998   3.093   5.358   8.160
 8717SOL    HW230999   3.055   5.329   8.304
 8718SOL     OW31000   2.375   4.874   8.151
 8718SOL    HW131001   2.315   4.842   8.218
 8718SOL    HW231002   2.324   4.868   8.070
 8719SOL     OW31003   3.110   5.509   8.055
 8719SOL    HW131004   3.152   5.581   8.008
 8719SOL    HW231005   3.030   5.548   8.092
 8720SOL     OW31006   2.929   4.286   7.428
 8720SOL    HW131007   2.834   4.300   7.426
 8720SOL    HW231008   2.950   4.269   7.520
 8721SOL     OW31009   1.989   4.271   8.830
 8721SOL    HW131010   2.002   4.188   8.875
 8721SOL    HW231011   1.957   4.330   8.899
 8722SOL     OW31012   2.432   3.897   8.649
 8722SOL    HW131013   2.454   3.823   8.705
 8722SOL    HW231014   2.337   3.908   8.660
 8723SOL     OW31015   2.736   4.244   8.102
 8723SOL    HW131016   2.657   4.289   8.073
 8723SOL    HW231017   2.742   4.167   8.044
 8724SOL     OW31018   2.886   3.746   8.173
 8724SOL    HW131019   2.819   3.739   8.106
 8724SOL    HW231020   2.866   3.676   8.235
 8725SOL     OW31021   3.271   4.896   8.351
 8725SOL    HW131022   3.187   4.878   8.394
 8725SOL    HW231023   3.253   4.889   8.258
 8726SOL     OW31024   3.308   4.319   8.438
 8726SOL    HW131025   3.246   4.275   8.496
 8726SOL    HW231026   3.382   4.341   8.494
 8727SOL     OW31027   3.710   4.549   7.827
 8727SOL    HW131028   3.765   4.495   7.884
 8727SOL    HW231029   3.626   4.503   7.825
 8728SOL     OW31030   2.359   5.232   7.585
 8728SOL    HW131031   2.314   5.167   7.639
 8728SOL    HW231032   2.300   5.248   7.512
 8729SOL     OW31033   3.563   5.072   8.076
 8729SOL    HW131034   3.638   5.091   8.133
 8729SOL    HW231035   3.496   5.135   8.103
 8730SOL     OW31036   3.245   4.261   7.491
 8730SOL    HW131037   3.173   4.252   7.554
 8730SOL    HW231038   3.302   4.187   7.509
 8731SOL     OW31039   2.407   3.992   7.773
 8731SOL    HW131040   2.381   3.908   7.735
 8731SOL    HW231041   2.365   4.057   7.716
 8732SOL     OW31042   3.597   4.946   8.985
 8732SOL    HW131043   3.686   4.916   8.969
 8732SOL    HW231044   3.607   5.030   9.030
 8733SOL     OW31045   2.910   5.066   8.727
 8733SOL    HW131046   2.831   5.043   8.775
 8733SOL    HW231047   2.982   5.033   8.781
 8734SOL     OW31048   3.467   5.344   9.052
 8734SOL    HW131049   3.499   5.418   9.001
 8734SOL    HW231050   3.543   5.288   9.066
 8735SOL     OW31051   3.026   4.938   8.503
 8735SOL    HW131052   2.980   4.976   8.577
 8735SOL    HW231053   2.985   4.978   8.426
 8736SOL     OW31054   3.483   4.839   8.532
 8736SOL    HW131055   3.474   4.901   8.605
 8736SOL    HW231056   3.404   4.852   8.480
 8737SOL     OW31057   2.779   3.896   8.872
 8737SOL    HW131058   2.765   3.809   8.834
 8737SOL    HW231059   2.827   3.879   8.953
 8738SOL     OW31060   2.846   4.822   9.174
 8738SOL    HW131061   2.757   4.842   9.205
 8738SOL    HW231062   2.834   4.753   9.110
 8739SOL     OW31063   2.615   4.741   7.787
 8739SOL    HW131064   2.569   4.732   7.870
 8739SOL    HW231065   2.705   4.712   7.806
 8740SOL     OW31066   2.269   4.511   8.675
 8740SOL    HW131067   2.313   4.536   8.756
 8740SOL    HW231068   2.261   4.416   8.681
 8741SOL     OW31069   3.144   4.186   8.624
 8741SOL    HW131070   3.186   4.226   8.701
 8741SOL    HW231071   3.056   4.163   8.654
 8742SOL     OW31072   1.951   5.312   8.808
 8742SOL    HW131073   1.946   5.397   8.852
 8742SOL    HW231074   2.043   5.303   8.784
 8743SOL     OW31075   2.260   4.850   7.899
 8743SOL    HW131076   2.243   4.923   7.840
 8743SOL    HW231077   2.215   4.776   7.860
 8744SOL     OW31078   2.503   4.332   8.316
 8744SOL    HW131079   2.505   4.358   8.224
 8744SOL    HW231080   2.415   4.296   8.329
 8745SOL     OW31081   3.106   5.076   7.877
 8745SOL    HW131082   3.158   5.152   7.903
 8745SOL    HW231083   3.016   5.101   7.898
 8746SOL     OW31084   3.140   5.237   8.637
 8746SOL    HW131085   3.200   5.223   8.711
 8746SOL    HW231086   3.060   5.190   8.662
 8747SOL     OW31087   3.433   4.380   7.917
 8747SOL    HW131088   3.413   4.385   8.010
 8747SOL    HW231089   3.357   4.420   7.874
 8748SOL     OW31090   2.212   5.270   8.717
 8748SOL    HW131091   2.198   5.203   8.650
 8748SOL    HW231092   2.306   5.284   8.718
 8749SOL     OW31093   2.239   4.405   9.066
 8749SOL    HW131094   2.297   4.458   9.011
 8749SOL    HW231095   2.261   4.315   9.043
 8750SOL     OW31096   3.513   4.496   9.161
 8750SOL    HW131097   3.422   4.523   9.152
 8750SOL    HW231098   3.558   4.539   9.088
 8751SOL     OW31099   2.854   3.781   9.138
 8751SOL    HW131100   2.819   3.844   9.200
 8751SOL    HW231101   2.787   3.712   9.134
 8752SOL     OW31102   2.427   3.740   9.178
 8752SOL    HW131103   2.359   3.685   9.141
 8752SOL    HW231104   2.381   3.818   9.209
 8753SOL     OW31105   2.514   4.556   8.541
 8753SOL    HW131106   2.525   4.649   8.518
 8753SOL    HW231107   2.425   4.551   8.576
 8754SOL     OW31108   3.157   4.563   8.422
 8754SOL    HW131109   3.065   4.540   8.407
 8754SOL    HW231110   3.202   4.478   8.427
 8755SOL     OW31111   3.048   4.239   7.681
 8755SOL    HW131112   3.062   4.164   7.740
 8755SOL    HW231113   3.003   4.304   7.735
 8756SOL     OW31114   2.159   3.890   8.666
 8756SOL    HW131115   2.077   3.916   8.707
 8756SOL    HW231116   2.147   3.797   8.645
 8757SOL     OW31117   1.951   5.050   8.694
 8757SOL    HW131118   1.970   4.997   8.772
 8757SOL    HW231119   1.928   5.136   8.729
 8758SOL     OW31120   3.617   4.693   9.336
 8758SOL    HW131121   3.576   4.617   9.294
 8758SOL    HW231122   3.554   4.721   9.402
 8759SOL     OW31123   2.220   3.786   8.103
 8759SOL    HW131124   2.166   3.864   8.114
 8759SOL    HW231125   2.214   3.740   8.187
 8760SOL     OW31126   3.486   4.125   7.810
 8760SOL    HW131127   3.499   4.056   7.874
 8760SOL    HW231128   3.457   4.200   7.862
 8761SOL     OW31129   2.892   4.475   8.406
 8761SOL    HW131130   2.867   4.486   8.497
 8761SOL    HW231131   2.869   4.384   8.386
 8762SOL     OW31132   2.865   5.317   9.204
 8762SOL    HW131133   2.821   5.338   9.121
 8762SOL    HW231134   2.822   5.237   9.234
 8763SOL     OW31135   3.698   5.195   9.056
 8763SOL    HW131136   3.743   5.231   8.979
 8763SOL    HW231137   3.760   5.208   9.128
 8764SOL     OW31138   2.158   4.622   9.250
 8764SOL    HW131139   2.181   4.615   9.342
 8764SOL    HW231140   2.193   4.543   9.210
 8765SOL     OW31141   3.424   4.026   7.560
 8765SOL    HW131142   3.367   3.949   7.563
 8765SOL    HW231143   3.432   4.052   7.652
 8766SOL     OW31144   3.241   4.540   7.491
 8766SOL    HW131145   3.244   4.445   7.490
 8766SOL    HW231146   3.220   4.564   7.400
 8767SOL     OW31147   2.935   5.057   8.269
 8767SOL    HW131148   2.936   4.994   8.196
 8767SOL    HW231149   2.989   5.129   8.239
 8768SOL     OW31150   2.103   4.505   8.449
 8768SOL    HW131151   2.165   4.522   8.519
 8768SOL    HW231152   2.047   4.435   8.484
 8769SOL     OW31153   2.249   4.250   8.367
 8769SOL    HW131154   2.205   4.168   8.388
 8769SOL    HW231155   2.184   4.318   8.385
 8770SOL     OW31156   2.998   4.194   9.072
 8770SOL    HW131157   2.951   4.205   9.154
 8770SOL    HW231158   3.090   4.210   9.095
 8771SOL     OW31159   3.097   3.995   8.897
 8771SOL    HW131160   3.069   4.051   8.969
 8771SOL    HW231161   3.033   4.009   8.828
 8772SOL     OW31162   1.942   5.488   8.412
 8772SOL    HW131163   1.900   5.419   8.361
 8772SOL    HW231164   2.027   5.501   8.370
 8773SOL     OW31165   2.344   5.285   8.334
 8773SOL    HW131166   2.414   5.348   8.355
 8773SOL    HW231167   2.384   5.226   8.270
 8774SOL     OW31168   2.778   4.468   8.653
 8774SOL    HW131169   2.817   4.428   8.731
 8774SOL    HW231170   2.742   4.551   8.684
 8775SOL     OW31171   1.986   4.281   8.559
 8775SOL    HW131172   1.922   4.219   8.524
 8775SOL    HW231173   1.969   4.282   8.653
 8776SOL     OW31174   3.274   4.619   9.097
 8776SOL    HW131175   3.280   4.714   9.093
 8776SOL    HW231176   3.257   4.593   9.006
 8777SOL     OW31177   2.678   4.304   7.778
 8777SOL    HW131178   2.666   4.221   7.733
 8777SOL    HW231179   2.590   4.329   7.806
 8778SOL     OW31180   3.529   4.367   8.591
 8778SOL    HW131181   3.528   4.304   8.663
 8778SOL    HW231182   3.617   4.359   8.554
 8779SOL     OW31183   2.099   5.261   9.128
 8779SOL    HW131184   2.080   5.337   9.183
 8779SOL    HW231185   2.111   5.189   9.190
 8780SOL     OW31186   2.507   4.167   8.629
 8780SOL    HW131187   2.505   4.072   8.630
 8780SOL    HW231188   2.415   4.193   8.643
 8781SOL     OW31189   2.789   5.380   8.934
 8781SOL    HW131190   2.701   5.350   8.915
 8781SOL    HW231191   2.790   5.472   8.907
 8782SOL     OW31192   2.291   4.164   7.599
 8782SOL    HW131193   2.257   4.116   7.524
 8782SOL    HW231194   2.227   4.234   7.614
 8783SOL     OW31195   2.034   4.892   8.910
 8783SOL    HW131196   2.006   4.865   8.998
 8783SOL    HW231197   2.035   4.810   8.860
 8784SOL     OW31198   3.173   4.742   8.633
 8784SOL    HW131199   3.174   4.678   8.562
 8784SOL    HW231200   3.118   4.813   8.601
 8785SOL     OW31201   3.221   4.531   7.823
 8785SOL    HW131202   3.188   4.557   7.909
 8785SOL    HW231203   3.142   4.515   7.771
 8786SOL     OW31204   3.619   5.469   8.601
 8786SOL    HW131205   3.681   5.482   8.530
 8786SOL    HW231206   3.599   5.376   8.599
 8787SOL     OW31207   3.147   5.520   8.662
 8787SOL    HW131208   3.220   5.536   8.602
 8787SOL    HW231209   3.136   5.425   8.662
 8788SOL     OW31210   2.011   4.948   8.446
 8788SOL    HW131211   1.979   4.979   8.531
 8788SOL    HW231212   1.934   4.910   8.404
 8789SOL     OW31213   2.528   5.414   9.157
 8789SOL    HW131214   2.479   5.491   9.186
 8789SOL    HW231215   2.532   5.423   9.061
 8790SOL     OW31216   3.593   3.904   7.951
 8790SOL    HW131217   3.659   3.882   7.885
 8790SOL    HW231218   3.559   3.819   7.979
 8791SOL     OW31219   3.254   5.299   7.943
 8791SOL    HW131220   3.313   5.336   7.877
 8791SOL    HW231221   3.196   5.372   7.966
 8792SOL     OW31222   2.045   5.502   9.252
 8792SOL    HW131223   1.999   5.479   9.333
 8792SOL    HW231224   2.108   5.569   9.278
 8793SOL     OW31225   3.163   4.600   8.079
 8793SOL    HW131226   3.230   4.555   8.130
 8793SOL    HW231227   3.180   4.693   8.095
 8794SOL     OW31228   2.665   4.999   8.845
 8794SOL    HW131229   2.644   5.047   8.925
 8794SOL    HW231230   2.583   5.000   8.795
 8795SOL     OW31231   2.613   5.324   7.535
 8795SOL    HW131232   2.591   5.363   7.450
 8795SOL    HW231233   2.532   5.284   7.565
 8796SOL     OW31234   3.553   5.543   8.878
 8796SOL    HW131235   3.565   5.512   8.788
 8796SOL    HW231236   3.501   5.622   8.869
 8797SOL     OW31237   3.675   3.872   8.411
 8797SOL    HW131238   3.722   3.789   8.400
 8797SOL    HW231239   3.585   3.851   8.386
 8798SOL     OW31240   2.099   4.033   8.142
 8798SOL    HW131241   2.010   4.063   8.124
 8798SOL    HW231242   2.105   4.032   8.238
 8799SOL     OW31243   3.099   5.310   7.477
 8799SOL    HW131244   3.081   5.225   7.516
 8799SOL    HW231245   3.033   5.321   7.409
 8800SOL     OW31246   2.716   4.736   8.752
 8800SOL    HW131247   2.684   4.758   8.665
 8800SOL    HW231248   2.707   4.817   8.802
 8801SOL     OW31249   2.883   4.675   7.828
 8801SOL    HW131250   2.906   4.684   7.736
 8801SOL    HW231251   2.892   4.581   7.846
 8802SOL     OW31252   3.366   5.364   7.511
 8802SOL    HW131253   3.274   5.348   7.492
 8802SOL    HW231254   3.407   5.373   7.425
 8803SOL     OW31255   2.255   5.055   8.919
 8803SOL    HW131256   2.229   5.133   8.869
 8803SOL    HW231257   2.181   4.995   8.911
 8804SOL     OW31258   3.468   5.027   8.744
 8804SOL    HW131259   3.510   4.990   8.822
 8804SOL    HW231260   3.398   5.083   8.778
 8805SOL     OW31261   2.919   4.826   8.105
 8805SOL    HW131262   2.863   4.785   8.171
 8805SOL    HW231263   2.894   4.784   8.023
 8806SOL     OW31264   2.840   3.942   8.385
 8806SOL    HW131265   2.828   3.888   8.308
 8806SOL    HW231266   2.836   3.881   8.459
 8807SOL     OW31267   2.352   5.232   7.951
 8807SOL    HW131268   2.290   5.167   7.917
 8807SOL    HW231269   2.304   5.315   7.947
 8808SOL     OW31270   3.609   4.172   8.772
 8808SOL    HW131271   3.694   4.215   8.784
 8808SOL    HW231272   3.631   4.085   8.739
 8809SOL     OW31273   2.184   5.063   7.728
 8809SOL    HW131274   2.127   5.070   7.652
 8809SOL    HW231275   2.131   5.096   7.801
 8810SOL     OW31276   1.978   4.818   9.177
 8810SOL    HW131277   1.899   4.794   9.225
 8810SOL    HW231278   2.040   4.747   9.196
 8811SOL     OW31279   2.520   3.973   8.964
 8811SOL    HW131280   2.602   3.953   8.919
 8811SOL    HW231281   2.543   3.971   9.057
 8812SOL     OW31282   1.897   4.011   7.461
 8812SOL    HW131283   1.845   3.977   7.388
 8812SOL    HW231284   1.869   4.102   7.470
 8813SOL     OW31285   3.276   4.573   8.826
 8813SOL    HW131286   3.222   4.627   8.769
 8813SOL    HW231287   3.365   4.588   8.796
 8814SOL     OW31288   1.889   3.852   7.713
 8814SOL    HW131289   1.850   3.906   7.645
 8814SOL    HW231290   1.980   3.841   7.686
 8815SOL     OW31291   3.059   5.061   7.600
 8815SOL    HW131292   2.965   5.070   7.584
 8815SOL    HW231293   3.066   5.058   7.695
 8816SOL     OW31294   2.434   4.525   8.897
 8816SOL    HW131295   2.485   4.593   8.939
 8816SOL    HW231296   2.495   4.452   8.887
 8817SOL     OW31297   3.368   5.568   8.512
 8817SOL    HW131298   3.389   5.637   8.448
 8817SOL    HW231299   3.454   5.536   8.540
 8818SOL     OW31300   2.629   4.251   9.129
 8818SOL    HW131301   2.646   4.318   9.196
 8818SOL    HW231302   2.627   4.169   9.178
 8819SOL     OW31303   3.322   4.889   9.065
 8819SOL    HW131304   3.303   4.913   9.155
 8819SOL    HW231305   3.412   4.917   9.050
 8820SOL     OW31306   2.233   5.458   8.979
 8820SOL    HW131307   2.151   5.501   8.955
 8820SOL    HW231308   2.206   5.377   9.023
 8821SOL     OW31309   3.525   4.620   8.709
 8821SOL    HW131310   3.524   4.537   8.660
 8821SOL    HW231311   3.513   4.687   8.643
 8822SOL     OW31312   3.087   4.050   7.880
 8822SOL    HW131313   3.144   3.974   7.868
 8822SOL    HW231314   3.107   4.081   7.968
 8823SOL     OW31315   2.516   4.423   8.047
 8823SOL    HW131316   2.537   4.517   8.052
 8823SOL    HW231317   2.426   4.421   8.015
 8824SOL     OW31318   3.640   4.078   9.032
 8824SOL    HW131319   3.603   4.111   8.950
 8824SOL    HW231320   3.594   3.996   9.049
 8825SOL     OW31321   3.634   4.648   8.962
 8825SOL    HW131322   3.603   4.735   8.988
 8825SOL    HW231323   3.598   4.635   8.874
 8826SOL     OW31324   2.808   5.135   7.504
 8826SOL    HW131325   2.777   5.067   7.564
 8826SOL    HW231326   2.744   5.205   7.513
 8827SOL     OW31327   2.530   5.483   8.362
 8827SOL    HW131328   2.487   5.567   8.373
 8827SOL    HW231329   2.622   5.500   8.383
 8828SOL     OW31330   2.756   4.701   8.296
 8828SOL    HW131331   2.800   4.625   8.332
 8828SOL    HW231332   2.706   4.736   8.370
 8829SOL     OW31333   2.949   4.628   7.558
 8829SOL    HW131334   2.874   4.609   7.503
 8829SOL    HW231335   3.019   4.573   7.523
 8830SOL     OW31336   3.659   5.257   8.288
 8830SOL    HW131337   3.573   5.274   8.249
 8830SOL    HW231338   3.640   5.231   8.378
 8831SOL     OW31339   2.111   5.033   9.292
 8831SOL    HW131340   2.071   4.962   9.240
 8831SOL    HW231341   2.053   5.042   9.368
 8832SOL     OW31342   1.896   4.957   8.076
 8832SOL    HW131343   1.876   4.938   8.168
 8832SOL    HW231344   1.898   4.871   8.034
 8833SOL     OW31345   2.576   5.152   9.063
 8833SOL    HW131346   2.505   5.097   9.095
 8833SOL    HW231347   2.561   5.237   9.106
 8834SOL     OW31348   3.687   3.924   8.692
 8834SOL    HW131349   3.662   3.848   8.745
 8834SOL    HW231350   3.678   3.895   8.602
 8835SOL     OW31351   2.304   4.143   7.988
 8835SOL    HW131352   2.330   4.075   7.926
 8835SOL    HW231353   2.238   4.101   8.043
 8836SOL     OW31354   3.561   5.198   8.540
 8836SOL    HW131355   3.474   5.190   8.502
 8836SOL    HW231356   3.559   5.140   8.616
 8837SOL     OW31357   2.254   4.239   8.698
 8837SOL    HW131358   2.252   4.207   8.788
 8837SOL    HW231359   2.164   4.226   8.666
 8838SOL     OW31360   2.708   5.315   8.126
 8838SOL    HW131361   2.680   5.392   8.078
 8838SOL    HW231362   2.629   5.262   8.135
 8839SOL     OW31363   3.304   3.941   8.632
 8839SOL    HW131364   3.310   3.889   8.712
 8839SOL    HW231365   3.265   4.024   8.661
 8840SOL     OW31366   2.880   3.747   8.577
 8840SOL    HW131367   2.835   3.708   8.652
 8840SOL    HW231368   2.963   3.699   8.571
 8841SOL     OW31369   2.751   4.982   7.720
 8841SOL    HW131370   2.692   4.909   7.739
 8841SOL    HW231371   2.761   5.027   7.804
 8842SOL     OW31372   2.495   5.282   8.697
 8842SOL    HW131373   2.499   5.352   8.761
 8842SOL    HW231374   2.577   5.289   8.648
 8843SOL     OW31375   3.253   3.798   7.563
 8843SOL    HW131376   3.292   3.715   7.536
 8843SOL    HW231377   3.161   3.777   7.578
 8844SOL     OW31378   3.148   4.138   8.138
 8844SOL    HW131379   3.105   4.224   8.128
 8844SOL    HW231380   3.110   4.102   8.218
 8845SOL     OW31381   1.851   4.769   7.741
 8845SOL    HW131382   1.853   4.794   7.649
 8845SOL    HW231383   1.821   4.678   7.742
 8846SOL     OW31384   2.771   5.398   7.759
 8846SOL    HW131385   2.708   5.381   7.689
 8846SOL    HW231386   2.724   5.453   7.821
 8847SOL     OW31387   2.099   4.304   9.441
 8847SOL    HW131388   2.051   4.369   9.491
 8847SOL    HW231389   2.037   4.233   9.427
 8848SOL     OW31390   3.661   4.299   9.513
 8848SOL    HW131391   3.629   4.284   9.424
 8848SOL    HW231392   3.607   4.241   9.567
 8849SOL     OW31393   2.035   5.446   9.852
 8849SOL    HW131394   2.080   5.470   9.933
 8849SOL    HW231395   2.038   5.351   9.850
 8850SOL     OW31396   2.014   5.175   9.890
 8850SOL    HW131397   1.959   5.215   9.958
 8850SOL    HW231398   2.002   5.081   9.903
 8851SOL     OW31399   2.509   4.654   9.430
 8851SOL    HW131400   2.536   4.732   9.382
 8851SOL    HW231401   2.414   4.663   9.440
 8852SOL     OW31402   1.947   4.408   9.862
 8852SOL    HW131403   1.861   4.368   9.871
 8852SOL    HW231404   1.946   4.481   9.925
 8853SOL     OW31405   3.716   5.466   9.620
 8853SOL    HW131406   3.786   5.460   9.685
 8853SOL    HW231407   3.700   5.560   9.611
 8854SOL     OW31408   1.928   5.413   9.492
 8854SOL    HW131409   1.907   5.320   9.481
 8854SOL    HW231410   1.864   5.444   9.556
 8855SOL     OW31411   3.580   4.610   9.840
 8855SOL    HW131412   3.621   4.620   9.926
 8855SOL    HW231413   3.539   4.695   9.824
 8856SOL     OW31414   3.473   4.864   9.792
 8856SOL    HW131415   3.517   4.947   9.770
 8856SOL    HW231416   3.417   4.886   9.866
 8857SOL     OW31417   2.670   3.732   9.849
 8857SOL    HW131418   2.716   3.807   9.812
 8857SOL    HW231419   2.579   3.760   9.855
 8858SOL     OW31420   3.405   4.748   9.538
 8858SOL    HW131421   3.338   4.684   9.563
 8858SOL    HW231422   3.429   4.790   9.621
 8859SOL     OW31423   2.473   4.419   9.582
 8859SOL    HW131424   2.481   4.502   9.535
 8859SOL    HW231425   2.398   4.431   9.640
 8860SOL     OW31426   3.477   5.304   9.602
 8860SOL    HW131427   3.549   5.364   9.616
 8860SOL    HW231428   3.446   5.324   9.513
 8861SOL     OW31429   2.943   4.433   9.733
 8861SOL    HW131430   2.960   4.397   9.820
 8861SOL    HW231431   2.858   4.396   9.708
 8862SOL     OW31432   1.957   4.611   0.050
 8862SOL    HW131433   2.035   4.665   0.039
 8862SOL    HW231434   1.962   4.579   0.141
 8863SOL     OW31435   2.674   4.056   9.520
 8863SOL    HW131436   2.681   4.082   9.428
 8863SOL    HW231437   2.618   3.978   9.519
 8864SOL     OW31438   3.099   4.850   9.861
 8864SOL    HW131439   3.183   4.875   9.898
 8864SOL    HW231440   3.087   4.908   9.786
 8865SOL     OW31441   2.851   5.159   9.812
 8865SOL    HW131442   2.807   5.238   9.781
 8865SOL    HW231443   2.800   5.131   9.888
 8866SOL     OW31444   2.203   5.571   0.112
 8866SOL    HW131445   2.185   5.514   0.187
 8866SOL    HW231446   2.294   5.597   0.123
 8867SOL     OW31447   2.246   4.631   9.525
 8867SOL    HW131448   2.225   4.700   9.587
 8867SOL    HW231449   2.227   4.550   9.572
 8868SOL     OW31450   3.522   5.079   9.349
 8868SOL    HW131451   3.484   5.167   9.351
 8868SOL    HW231452   3.447   5.020   9.347
 8869SOL     OW31453   2.405   5.469   9.725
 8869SOL    HW131454   2.403   5.540   9.789
 8869SOL    HW231455   2.371   5.507   9.645
 8870SOL     OW31456   3.279   3.873   9.699
 8870SOL    HW131457   3.240   3.806   9.755
 8870SOL    HW231458   3.372   3.871   9.720
 8871SOL     OW31459   2.230   4.432   9.725
 8871SOL    HW131460   2.265   4.352   9.764
 8871SOL    HW231461   2.147   4.447   9.770
 8872SOL     OW31462   2.556   3.799   9.435
 8872SOL    HW131463   2.530   3.757   9.517
 8872SOL    HW231464   2.514   3.747   9.367
 8873SOL     OW31465   2.398   3.816   9.904
 8873SOL    HW131466   2.304   3.821   9.921
 8873SOL    HW231467   2.411   3.869   9.825
 8874SOL     OW31468   3.291   4.922   9.341
 8874SOL    HW131469   3.316   4.857   9.407
 8874SOL    HW231470   3.207   4.956   9.372
 8875SOL     OW31471   2.168   3.853   9.492
 8875SOL    HW131472   2.076   3.879   9.505
 8875SOL    HW231473   2.178   3.773   9.543
 8876SOL     OW31474   2.801   3.948   9.742
 8876SOL    HW131475   2.761   3.994   9.668
 8876SOL    HW231476   2.890   3.981   9.745
 8877SOL     OW31477   2.883   4.251   9.315
 8877SOL    HW131478   2.822   4.325   9.326
 8877SOL    HW231479   2.927   4.243   9.399
 8878SOL     OW31480   2.693   4.259   9.990
 8878SOL    HW131481   2.671   4.346   0.024
 8878SOL    HW231482   2.627   4.243   9.922
 8879SOL     OW31483   3.737   4.537   9.624
 8879SOL    HW131484   3.684   4.555   9.702
 8879SOL    HW231485   3.697   4.460   9.584
 8880SOL     OW31486   2.338   5.165   9.462
 8880SOL    HW131487   2.283   5.146   9.537
 8880SOL    HW231488   2.294   5.124   9.388
 8881SOL     OW31489   3.237   4.281   9.375
 8881SOL    HW131490   3.161   4.273   9.433
 8881SOL    HW231491   3.294   4.208   9.399
 8882SOL     OW31492   2.358   3.978   9.666
 8882SOL    HW131493   2.292   3.927   9.619
 8882SOL    HW231494   2.372   4.056   9.612
 8883SOL     OW31495   2.604   4.777   9.727
 8883SOL    HW131496   2.530   4.741   9.678
 8883SOL    HW231497   2.681   4.732   9.692
 8884SOL     OW31498   2.177   4.808   9.728
 8884SOL    HW131499   2.179   4.904   9.721
 8884SOL    HW231500   2.174   4.792   9.822
 8885SOL     OW31501   3.088   5.084   9.693
 8885SOL    HW131502   3.148   5.155   9.713
 8885SOL    HW231503   3.006   5.109   9.736
 8886SOL     OW31504   3.510   4.337   9.867
 8886SOL    HW131505   3.435   4.323   9.924
 8886SOL    HW231506   3.509   4.431   9.848
 8887SOL     OW31507   3.031   4.246   9.549
 8887SOL    HW131508   3.039   4.170   9.607
 8887SOL    HW231509   3.000   4.316   9.606
 8888SOL     OW31510   2.131   3.807   9.948
 8888SOL    HW131511   2.054   3.863   9.960
 8888SOL    HW231512   2.117   3.734   0.008
 8889SOL     OW31513   3.506   4.136   9.670
 8889SOL    HW131514   3.524   4.052   9.712
 8889SOL    HW231515   3.496   4.197   9.743
 8890SOL     OW31516   3.366   4.049   9.444
 8890SOL    HW131517   3.321   3.968   9.468
 8890SOL    HW231518   3.413   4.075   9.524
 8891SOL     OW31519   3.168   4.546   9.341
 8891SOL    HW131520   3.194   4.454   9.349
 8891SOL    HW231521   3.201   4.573   9.255
 8892SOL     OW31522   1.918   5.032   9.492
 8892SOL    HW131523   1.832   5.061   9.464
 8892SOL    HW231524   1.906   4.940   9.514
 8893SOL     OW31525   2.719   4.307   9.640
 8893SOL    HW131526   2.705   4.217   9.610
 8893SOL    HW231527   2.634   4.350   9.628
 8894SOL     OW31528   2.349   4.193   9.471
 8894SOL    HW131529   2.404   4.263   9.506
 8894SOL    HW231530   2.262   4.232   9.463
 8895SOL     OW31531   3.195   4.577   9.618
 8895SOL    HW131532   3.119   4.543   9.664
 8895SOL    HW231533   3.174   4.566   9.526
 8896SOL     OW31534   3.577   3.884   9.756
 8896SOL    HW131535   3.650   3.877   9.695
 8896SOL    HW231536   3.583   3.805   9.809
 8897SOL     OW31537   3.246   5.302   9.767
 8897SOL    HW131538   3.327   5.290   9.718
 8897SOL    HW231539   3.230   5.396   9.765
 8898SOL     OW31540   2.562   5.325   9.417
 8898SOL    HW131541   2.551   5.350   9.326
 8898SOL    HW231542   2.483   5.277   9.439
 8899SOL     OW31543   3.118   5.309   9.314
 8899SOL    HW131544   3.101   5.228   9.362
 8899SOL    HW231545   3.033   5.330   9.274
 8900SOL     OW31546   2.826   4.666   9.632
 8900SOL    HW131547   2.876   4.691   9.554
 8900SOL    HW231548   2.872   4.590   9.667
 8901SOL     OW31549   3.392   5.324   9.326
 8901SOL    HW131550   3.296   5.328   9.332
 8901SOL    HW231551   3.410   5.341   9.233
 8902SOL     OW31552   2.508   5.246   9.844
 8902SOL    HW131553   2.472   5.171   9.797
 8902SOL    HW231554   2.459   5.321   9.809
 8903SOL     OW31555   2.141   5.087   9.654
 8903SOL    HW131556   2.064   5.070   9.599
 8903SOL    HW231557   2.107   5.130   9.732
 8904SOL     OW31558   1.905   4.102   9.393
 8904SOL    HW131559   1.906   4.016   9.436
 8904SOL    HW231560   1.844   4.154   9.445
 8905SOL     OW31561   1.900   3.881   9.573
 8905SOL    HW131562   1.857   3.911   9.653
 8905SOL    HW231563   1.872   3.790   9.564
 8906SOL     OW31564   3.044   5.058   9.418
 8906SOL    HW131565   2.950   5.045   9.412
 8906SOL    HW231566   3.063   5.058   9.512
 8907SOL     OW31567   3.065   4.053   9.742
 8907SOL    HW131568   3.139   3.993   9.732
 8907SOL    HW231569   3.072   4.086   9.832
 8908SOL     OW31570   2.739   5.112   9.373
 8908SOL    HW131571   2.736   5.067   9.458
 8908SOL    HW231572   2.685   5.190   9.385
 8909SOL     OW31573   2.968   4.726   9.406
 8909SOL    HW131574   2.934   4.764   9.325
 8909SOL    HW231575   3.036   4.665   9.377
 8910SOL     OW31576   1.944   4.924   9.970
 8910SOL    HW131577   1.907   4.930   0.058
 8910SOL    HW231578   2.022   4.870   9.981
 8911SOL     OW31579   2.325   4.205   9.842
 8911SOL    HW131580   2.324   4.114   9.813
 8911SOL    HW231581   2.325   4.200   9.938
 8912SOL     OW31582   2.721   5.007   9.619
 8912SOL    HW131583   2.680   4.929   9.656
 8912SOL    HW231584   2.773   5.043   9.690
 8913SOL     OW31585   3.198   3.743   9.433
 8913SOL    HW131586   3.280   3.700   9.459
 8913SOL    HW231587   3.164   3.780   9.515
 8914SOL     OW31588   1.940   4.762   9.589
 8914SOL    HW131589   2.024   4.767   9.635
 8914SOL    HW231590   1.930   4.670   9.567
 8915SOL     OW31591   2.702   5.373   9.658
 8915SOL    HW131592   2.665   5.351   9.572
 8915SOL    HW231593   2.632   5.354   9.720
 8916SOL     OW31594   2.046   6.186   0.134
 8916SOL    HW131595   1.966   6.157   0.178
 8916SOL    HW231596   2.024   6.184   0.041
 8917SOL     OW31597   2.069   5.825   0.967
 8917SOL    HW131598   2.098   5.811   1.057
 8917SOL    HW231599   1.979   5.791   0.965
 8918SOL     OW31600   1.812   5.970   0.656
 8918SOL    HW131601   1.739   6.004   0.708
 8918SOL    HW231602   1.775   5.894   0.610
 8919SOL     OW31603   2.464   6.892   1.233
 8919SOL    HW131604   2.381   6.897   1.185
 8919SOL    HW231605   2.486   6.983   1.251
 8920SOL     OW31606   3.393   7.028   0.704
 8920SOL    HW131607   3.354   7.046   0.789
 8920SOL    HW231608   3.331   7.065   0.641
 8921SOL     OW31609   2.997   6.281   0.665
 8921SOL    HW131610   3.053   6.358   0.671
 8921SOL    HW231611   2.918   6.304   0.714
 8922SOL     OW31612   3.644   6.184   0.120
 8922SOL    HW131613   3.659   6.240   0.044
 8922SOL    HW231614   3.551   6.163   0.116
 8923SOL     OW31615   2.632   6.732   1.075
 8923SOL    HW131616   2.557   6.760   1.128
 8923SOL    HW231617   2.662   6.811   1.032
 8924SOL     OW31618   2.787   6.336   1.805
 8924SOL    HW131619   2.703   6.362   1.843
 8924SOL    HW231620   2.794   6.388   1.725
 8925SOL     OW31621   2.575   6.563   0.649
 8925SOL    HW131622   2.637   6.564   0.722
 8925SOL    HW231623   2.503   6.619   0.678
 8926SOL     OW31624   2.599   6.769   1.845
 8926SOL    HW131625   2.644   6.845   1.883
 8926SOL    HW231626   2.514   6.804   1.817
 8927SOL     OW31627   2.233   6.979   1.103
 8927SOL    HW131628   2.154   6.935   1.070
 8927SOL    HW231629   2.258   7.039   1.033
 8928SOL     OW31630   3.340   7.055   1.386
 8928SOL    HW131631   3.389   7.138   1.386
 8928SOL    HW231632   3.266   7.071   1.444
 8929SOL     OW31633   2.349   5.975   1.423
 8929SOL    HW131634   2.417   5.917   1.457
 8929SOL    HW231635   2.267   5.936   1.454
 8930SOL     OW31636   3.496   6.052   0.727
 8930SOL    HW131637   3.443   6.039   0.648
 8930SOL    HW231638   3.508   6.147   0.733
 8931SOL     OW31639   2.104   7.258   0.478
 8931SOL    HW131640   2.124   7.338   0.526
 8931SOL    HW231641   2.030   7.282   0.422
 8932SOL     OW31642   3.012   6.909   1.705
 8932SOL    HW131643   3.051   6.919   1.793
 8932SOL    HW231644   2.968   6.825   1.708
 8933SOL     OW31645   2.099   6.983   0.496
 8933SOL    HW131646   2.104   7.079   0.495
 8933SOL    HW231647   2.041   6.963   0.570
 8934SOL     OW31648   2.184   6.638   0.942
 8934SOL    HW131649   2.126   6.563   0.954
 8934SOL    HW231650   2.132   6.713   0.969
 8935SOL     OW31651   2.484   7.380   1.459
 8935SOL    HW131652   2.396   7.406   1.433
 8935SOL    HW231653   2.531   7.463   1.471
 8936SOL     OW31654   2.399   6.540   0.182
 8936SOL    HW131655   2.375   6.619   0.134
 8936SOL    HW231656   2.470   6.567   0.240
 8937SOL     OW31657   3.472   5.694   1.480
 8937SOL    HW131658   3.512   5.774   1.448
 8937SOL    HW231659   3.411   5.723   1.548
 8938SOL     OW31660   1.958   6.203   0.560
 8938SOL    HW131661   1.912   6.125   0.591
 8938SOL    HW231662   1.955   6.264   0.634
 8939SOL     OW31663   3.723   7.346   0.309
 8939SOL    HW131664   3.805   7.322   0.353
 8939SOL    HW231665   3.735   7.437   0.283
 8940SOL     OW31666   1.914   7.151   0.132
 8940SOL    HW131667   1.829   7.108   0.136
 8940SOL    HW231668   1.908   7.221   0.197
 8941SOL     OW31669   3.612   6.531   0.596
 8941SOL    HW131670   3.704   6.548   0.577
 8941SOL    HW231671   3.564   6.591   0.539
 8942SOL     OW31672   3.490   6.742   0.433
 8942SOL    HW131673   3.489   6.804   0.360
 8942SOL    HW231674   3.528   6.791   0.506
 8943SOL     OW31675   2.030   6.335   1.543
 8943SOL    HW131676   2.004   6.312   1.632
 8943SOL    HW231677   1.973   6.407   1.518
 8944SOL     OW31678   2.484   6.954   0.773
 8944SOL    HW131679   2.441   6.869   0.766
 8944SOL    HW231680   2.481   6.990   0.684
 8945SOL     OW31681   3.150   6.771   1.417
 8945SOL    HW131682   3.189   6.713   1.351
 8945SOL    HW231683   3.215   6.776   1.487
 8946SOL     OW31684   2.686   5.595   0.511
 8946SOL    HW131685   2.723   5.678   0.482
 8946SOL    HW231686   2.592   5.611   0.517
 8947SOL     OW31687   2.009   6.617   1.219
 8947SOL    HW131688   2.085   6.558   1.224
 8947SOL    HW231689   1.934   6.558   1.213
 8948SOL     OW31690   3.426   6.471   0.350
 8948SOL    HW131691   3.367   6.457   0.276
 8948SOL    HW231692   3.437   6.566   0.355
 8949SOL     OW31693   3.080   7.393   1.634
 8949SOL    HW131694   3.053   7.472   1.588
 8949SOL    HW231695   3.105   7.332   1.565
 8950SOL     OW31696   2.232   5.851   1.818
 8950SOL    HW131697   2.226   5.946   1.822
 8950SOL    HW231698   2.149   5.823   1.781
 8951SOL     OW31699   3.321   6.991   0.975
 8951SOL    HW131700   3.254   7.021   1.036
 8951SOL    HW231701   3.287   6.908   0.942
 8952SOL     OW31702   3.637   7.142   0.637
 8952SOL    HW131703   3.633   7.201   0.561
 8952SOL    HW231704   3.546   7.121   0.656
 8953SOL     OW31705   2.430   6.272   0.280
 8953SOL    HW131706   2.431   6.358   0.239
 8953SOL    HW231707   2.361   6.279   0.347
 8954SOL     OW31708   3.133   5.878   0.878
 8954SOL    HW131709   3.039   5.859   0.889
 8954SOL    HW231710   3.137   5.936   0.802
 8955SOL     OW31711   3.464   7.240   0.349
 8955SOL    HW131712   3.548   7.285   0.340
 8955SOL    HW231713   3.441   7.213   0.260
 8956SOL     OW31714   2.690   6.157   1.423
 8956SOL    HW131715   2.646   6.141   1.506
 8956SOL    HW231716   2.659   6.088   1.365
 8957SOL     OW31717   3.243   6.067   1.646
 8957SOL    HW131718   3.249   6.110   1.731
 8957SOL    HW231719   3.277   5.979   1.661
 8958SOL     OW31720   2.820   6.494   1.560
 8958SOL    HW131721   2.876   6.427   1.520
 8958SOL    HW231722   2.792   6.548   1.486
 8959SOL     OW31723   2.898   5.936   1.185
 8959SOL    HW131724   2.810   5.963   1.212
 8959SOL    HW231725   2.886   5.889   1.103
 8960SOL     OW31726   2.927   6.250   0.394
 8960SOL    HW131727   2.948   6.255   0.487
 8960SOL    HW231728   2.837   6.216   0.391
 8961SOL     OW31729   1.954   6.387   0.759
 8961SOL    HW131730   2.011   6.373   0.834
 8961SOL    HW231731   1.905   6.466   0.781
 8962SOL     OW31732   1.927   7.426   1.571
 8962SOL    HW131733   1.932   7.451   1.664
 8962SOL    HW231734   1.867   7.489   1.532
 8963SOL     OW31735   2.713   5.938   0.206
 8963SOL    HW131736   2.719   5.984   0.123
 8963SOL    HW231737   2.731   5.846   0.184
 8964SOL     OW31738   3.550   6.160   1.850
 8964SOL    HW131739   3.534   6.237   1.796
 8964SOL    HW231740   3.555   6.087   1.787
 8965SOL     OW31741   3.238   6.725   0.557
 8965SOL    HW131742   3.318   6.727   0.505
 8965SOL    HW231743   3.179   6.786   0.513
 8966SOL     OW31744   2.377   5.691   0.950
 8966SOL    HW131745   2.401   5.723   1.037
 8966SOL    HW231746   2.371   5.771   0.896
 8967SOL     OW31747   2.868   7.051   0.505
 8967SOL    HW131748   2.845   7.107   0.431
 8967SOL    HW231749   2.817   7.084   0.578
 8968SOL     OW31750   2.201   7.384   0.851
 8968SOL    HW131751   2.247   7.303   0.870
 8968SOL    HW231752   2.252   7.452   0.895
 8969SOL     OW31753   3.647   6.623   0.879
 8969SOL    HW131754   3.623   6.673   0.801
 8969SOL    HW231755   3.576   6.640   0.941
 8970SOL     OW31756   3.103   7.105   1.517
 8970SOL    HW131757   3.083   7.032   1.576
 8970SOL    HW231758   3.018   7.132   1.483
 8971SOL     OW31759   2.162   6.521   0.338
 8971SOL    HW131760   2.234   6.529   0.275
 8971SOL    HW231761   2.176   6.437   0.381
 8972SOL     OW31762   3.456   6.327   0.692
 8972SOL    HW131763   3.423   6.358   0.776
 8972SOL    HW231764   3.511   6.398   0.659
 8973SOL     OW31765   2.341   6.869   1.784
 8973SOL    HW131766   2.325   6.878   1.689
 8973SOL    HW231767   2.253   6.869   1.823
 8974SOL     OW31768   2.966   7.362   0.180
 8974SOL    HW131769   2.908   7.322   0.245
 8974SOL    HW231770   2.983   7.292   0.117
 8975SOL     OW31771   2.108   5.853   1.473
 8975SOL    HW131772   2.056   5.932   1.460
 8975SOL    HW231773   2.075   5.817   1.556
 8976SOL     OW31774   3.483   6.910   0.208
 8976SOL    HW131775   3.463   7.000   0.181
 8976SOL    HW231776   3.415   6.857   0.166
 8977SOL     OW31777   3.224   5.690   0.426
 8977SOL    HW131778   3.201   5.680   0.333
 8977SOL    HW231779   3.299   5.749   0.426
 8978SOL     OW31780   2.108   7.435   1.228
 8978SOL    HW131781   2.087   7.529   1.226
 8978SOL    HW231782   2.064   7.399   1.151
 8979SOL     OW31783   2.797   7.300   0.879
 8979SOL    HW131784   2.881   7.253   0.880
 8979SOL    HW231785   2.745   7.254   0.813
 8980SOL     OW31786   2.223   6.266   0.472
 8980SOL    HW131787   2.254   6.177   0.490
 8980SOL    HW231788   2.130   6.265   0.496
 8981SOL     OW31789   3.329   5.802   1.700
 8981SOL    HW131790   3.342   5.810   1.794
 8981SOL    HW231791   3.256   5.742   1.691
 8982SOL     OW31792   2.482   5.661   0.136
 8982SOL    HW131793   2.578   5.659   0.141
 8982SOL    HW231794   2.464   5.675   0.043
 8983SOL     OW31795   2.614   5.834   1.741
 8983SOL    HW131796   2.701   5.796   1.746
 8983SOL    HW231797   2.567   5.799   1.817
 8984SOL     OW31798   2.765   7.090   1.192
 8984SOL    HW131799   2.735   7.068   1.104
 8984SOL    HW231800   2.839   7.032   1.207
 8985SOL     OW31801   3.187   6.155   1.389
 8985SOL    HW131802   3.207   6.129   1.479
 8985SOL    HW231803   3.213   6.247   1.385
 8986SOL     OW31804   2.693   6.969   0.955
 8986SOL    HW131805   2.776   6.967   0.907
 8986SOL    HW231806   2.626   6.977   0.887
 8987SOL     OW31807   2.773   6.146   0.908
 8987SOL    HW131808   2.753   6.131   0.816
 8987SOL    HW231809   2.788   6.059   0.944
 8988SOL     OW31810   2.419   5.647   0.509
 8988SOL    HW131811   2.351   5.644   0.577
 8988SOL    HW231812   2.394   5.721   0.454
 8989SOL     OW31813   3.275   6.783   0.093
 8989SOL    HW131814   3.269   6.713   0.027
 8989SOL    HW231815   3.184   6.809   0.108
 8990SOL     OW31816   2.787   5.845   0.460
 8990SOL    HW131817   2.749   5.883   0.380
 8990SOL    HW231818   2.880   5.866   0.455
 8991SOL     OW31819   2.919   6.294   1.390
 8991SOL    HW131820   2.858   6.226   1.419
 8991SOL    HW231821   3.002   6.248   1.378
 8992SOL     OW31822   3.055   7.192   0.840
 8992SOL    HW131823   3.083   7.242   0.763
 8992SOL    HW231824   3.094   7.239   0.914
 8993SOL     OW31825   2.358   6.707   0.743
 8993SOL    HW131826   2.300   6.688   0.817
 8993SOL    HW231827   2.300   6.712   0.667
 8994SOL     OW31828   3.110   7.357   0.625
 8994SOL    HW131829   3.170   7.412   0.575
 8994SOL    HW231830   3.041   7.418   0.654
 8995SOL     OW31831   2.972   6.177   9.962
 8995SOL    HW131832   2.899   6.117   9.972
 8995SOL    HW231833   3.026   6.163   0.039
 8996SOL     OW31834   1.970   6.084   1.424
 8996SOL    HW131835   1.940   6.088   1.333
 8996SOL    HW231836   2.001   6.172   1.443
 8997SOL     OW31837   2.438   5.791   1.201
 8997SOL    HW131838   2.472   5.775   1.290
 8997SOL    HW231839   2.343   5.797   1.213
 8998SOL     OW31840   2.736   6.062   0.646
 8998SOL    HW131841   2.690   6.116   0.581
 8998SOL    HW231842   2.752   5.979   0.601
 8999SOL     OW31843   2.885   5.636   0.719
 8999SOL    HW131844   2.824   5.639   0.645
 8999SOL    HW231845   2.857   5.560   0.770
 9000SOL     OW31846   3.268   6.749   0.849
 9000SOL    HW131847   3.179   6.720   0.832
 9000SOL    HW231848   3.306   6.764   0.763
 9001SOL     OW31849   3.327   6.243   0.945
 9001SOL    HW131850   3.331   6.162   0.894
 9001SOL    HW231851   3.382   6.226   1.021
 9002SOL     OW31852   3.639   6.297   0.376
 9002SOL    HW131853   3.642   6.264   0.287
 9002SOL    HW231854   3.573   6.367   0.374
 9003SOL     OW31855   2.280   7.132   0.134
 9003SOL    HW131856   2.236   7.061   0.182
 9003SOL    HW231857   2.238   7.131   0.048
 9004SOL     OW31858   3.589   6.838   0.680
 9004SOL    HW131859   3.670   6.889   0.672
 9004SOL    HW231860   3.521   6.903   0.695
 9005SOL     OW31861   3.371   6.131   0.100
 9005SOL    HW131862   3.284   6.160   0.130
 9005SOL    HW231863   3.366   6.036   0.101
 9006SOL     OW31864   2.354   5.835   0.314
 9006SOL    HW131865   2.404   5.779   0.255
 9006SOL    HW231866   2.333   5.912   0.262
 9007SOL     OW31867   3.591   6.889   1.621
 9007SOL    HW131868   3.633   6.895   1.536
 9007SOL    HW231869   3.555   6.976   1.637
 9008SOL     OW31870   2.942   6.909   1.307
 9008SOL    HW131871   2.861   6.887   1.354
 9008SOL    HW231872   3.011   6.865   1.356
 9009SOL     OW31873   3.507   7.159   1.649
 9009SOL    HW131874   3.482   7.207   1.570
 9009SOL    HW231875   3.602   7.170   1.654
 9010SOL     OW31876   2.972   6.760   1.078
 9010SOL    HW131877   2.955   6.818   1.152
 9010SOL    HW231878   2.964   6.817   1.001
 9011SOL     OW31879   3.444   6.667   1.060
 9011SOL    HW131880   3.444   6.731   1.131
 9011SOL    HW231881   3.375   6.696   1.001
 9012SOL     OW31882   2.784   5.669   1.383
 9012SOL    HW131883   2.796   5.650   1.290
 9012SOL    HW231884   2.865   5.713   1.409
 9013SOL     OW31885   2.855   6.683   1.764
 9013SOL    HW131886   2.765   6.706   1.786
 9013SOL    HW231887   2.846   6.617   1.695
 9014SOL     OW31888   2.594   6.603   0.369
 9014SOL    HW131889   2.591   6.588   0.463
 9014SOL    HW231890   2.680   6.569   0.342
 9015SOL     OW31891   2.262   6.455   1.253
 9015SOL    HW131892   2.334   6.471   1.314
 9015SOL    HW231893   2.243   6.362   1.262
 9016SOL     OW31894   3.171   5.943   1.205
 9016SOL    HW131895   3.190   6.016   1.263
 9016SOL    HW231896   3.076   5.948   1.191
 9017SOL     OW31897   1.887   7.087   1.297
 9017SOL    HW131898   1.816   7.112   1.238
 9017SOL    HW231899   1.954   7.155   1.284
 9018SOL     OW31900   2.178   6.718   0.538
 9018SOL    HW131901   2.166   6.805   0.500
 9018SOL    HW231902   2.170   6.658   0.464
 9019SOL     OW31903   2.399   6.177   0.876
 9019SOL    HW131904   2.424   6.191   0.785
 9019SOL    HW231905   2.395   6.265   0.914
 9020SOL     OW31906   3.095   6.925   0.423
 9020SOL    HW131907   3.156   6.997   0.437
 9020SOL    HW231908   3.011   6.959   0.454
 9021SOL     OW31909   3.153   7.062   1.184
 9021SOL    HW131910   3.221   7.056   1.251
 9021SOL    HW231911   3.076   7.020   1.225
 9022SOL     OW31912   3.363   6.154   0.489
 9022SOL    HW131913   3.405   6.226   0.537
 9022SOL    HW231914   3.343   6.192   0.403
 9023SOL     OW31915   2.262   7.107   1.341
 9023SOL    HW131916   2.229   7.074   1.258
 9023SOL    HW231917   2.351   7.136   1.321
 9024SOL     OW31918   2.269   6.286   1.689
 9024SOL    HW131919   2.212   6.306   1.615
 9024SOL    HW231920   2.226   6.212   1.733
 9025SOL     OW31921   3.504   6.384   1.697
 9025SOL    HW131922   3.413   6.411   1.687
 9025SOL    HW231923   3.551   6.429   1.627
 9026SOL     OW31924   2.870   5.733   1.751
 9026SOL    HW131925   2.911   5.815   1.725
 9026SOL    HW231926   2.940   5.668   1.747
 9027SOL     OW31927   2.361   5.621   1.755
 9027SOL    HW131928   2.299   5.572   1.701
 9027SOL    HW231929   2.318   5.706   1.769
 9028SOL     OW31930   2.387   6.428   1.010
 9028SOL    HW131931   2.382   6.510   0.961
 9028SOL    HW231932   2.347   6.449   1.095
 9029SOL     OW31933   3.116   6.417   0.952
 9029SOL    HW131934   3.127   6.461   0.867
 9029SOL    HW231935   3.186   6.353   0.955
 9030SOL     OW31936   3.099   6.120   0.219
 9030SOL    HW131937   3.081   6.033   0.254
 9030SOL    HW231938   3.045   6.179   0.271
 9031SOL     OW31939   2.164   5.759   1.219
 9031SOL    HW131940   2.133   5.791   1.303
 9031SOL    HW231941   2.142   5.666   1.219
 9032SOL     OW31942   2.591   6.258   1.103
 9032SOL    HW131943   2.629   6.226   1.022
 9032SOL    HW231944   2.513   6.306   1.076
 9033SOL     OW31945   3.608   6.515   1.917
 9033SOL    HW131946   3.565   6.467   1.847
 9033SOL    HW231947   3.537   6.550   1.970
 9034SOL     OW31948   2.197   5.622   0.684
 9034SOL    HW131949   2.150   5.705   0.680
 9034SOL    HW231950   2.151   5.564   0.623
 9035SOL     OW31951   3.417   5.883   0.421
 9035SOL    HW131952   3.507   5.862   0.445
 9035SOL    HW231953   3.412   5.979   0.430
 9036SOL     OW31954   2.857   6.372   1.057
 9036SOL    HW131955   2.948   6.393   1.035
 9036SOL    HW231956   2.838   6.294   1.005
 9037SOL     OW31957   2.839   7.119   1.712
 9037SOL    HW131958   2.826   7.163   1.628
 9037SOL    HW231959   2.892   7.042   1.691
 9038SOL     OW31960   3.780   7.164   1.602
 9038SOL    HW131961   3.773   7.149   1.507
 9038SOL    HW231962   3.794   7.258   1.610
 9039SOL     OW31963   2.219   6.498   1.877
 9039SOL    HW131964   2.305   6.523   1.911
 9039SOL    HW231965   2.237   6.422   1.822
 9040SOL     OW31966   3.370   5.861   0.144
 9040SOL    HW131967   3.300   5.798   0.128
 9040SOL    HW231968   3.385   5.857   0.238
 9041SOL     OW31969   2.951   6.939   0.867
 9041SOL    HW131970   2.969   6.883   0.791
 9041SOL    HW231971   2.995   7.021   0.847
 9042SOL     OW31972   2.120   6.351   0.972
 9042SOL    HW131973   2.212   6.377   0.979
 9042SOL    HW231974   2.119   6.259   0.998
 9043SOL     OW31975   2.179   6.083   1.017
 9043SOL    HW131976   2.145   5.997   0.990
 9043SOL    HW231977   2.255   6.096   0.960
 9044SOL     OW31978   2.984   5.969   1.664
 9044SOL    HW131979   2.933   6.012   1.733
 9044SOL    HW231980   3.065   6.020   1.658
 9045SOL     OW31981   3.021   5.799   1.452
 9045SOL    HW131982   2.999   5.863   1.520
 9045SOL    HW231983   3.036   5.852   1.373
 9046SOL     OW31984   1.892   6.821   0.124
 9046SOL    HW131985   1.814   6.876   0.128
 9046SOL    HW231986   1.873   6.747   0.182
 9047SOL     OW31987   1.974   7.324   1.004
 9047SOL    HW131988   1.921   7.260   0.958
 9047SOL    HW231989   2.043   7.348   0.942
 9048SOL     OW31990   2.347   7.149   0.918
 9048SOL    HW131991   2.412   7.218   0.933
 9048SOL    HW231992   2.393   7.085   0.865
 9049SOL     OW31993   1.866   6.061   1.170
 9049SOL    HW131994   1.900   6.086   1.084
 9049SOL    HW231995   1.787   6.114   1.181
 9050SOL     OW31996   3.256   6.493   1.653
 9050SOL    HW131997   3.277   6.586   1.646
 9050SOL    HW231998   3.237   6.465   1.564
 9051SOL     OW31999   2.668   6.151   0.381
 9051SOL    HW132000   2.675   6.080   0.318
 9051SOL    HW232001   2.589   6.199   0.354
 9052SOL     OW32002   3.488   6.189   1.160
 9052SOL    HW132003   3.468   6.167   1.251
 9052SOL    HW232004   3.581   6.167   1.150
 9053SOL     OW32005   2.094   7.153   1.751
 9053SOL    HW132006   2.066   7.215   1.819
 9053SOL    HW232007   2.089   7.067   1.793
 9054SOL     OW32008   2.627   5.998   1.206
 9054SOL    HW132009   2.557   5.933   1.198
 9054SOL    HW232010   2.590   6.078   1.169
 9055SOL     OW32011   2.846   7.192   1.442
 9055SOL    HW132012   2.815   7.155   1.359
 9055SOL    HW232013   2.847   7.286   1.427
 9056SOL     OW32014   2.295   6.059   0.158
 9056SOL    HW132015   2.355   6.126   0.192
 9056SOL    HW232016   2.210   6.102   0.156
 9057SOL     OW32017   1.975   6.770   1.450
 9057SOL    HW132018   1.934   6.697   1.496
 9057SOL    HW232019   1.995   6.735   1.363
 9058SOL     OW32020   3.135   6.569   1.186
 9058SOL    HW132021   3.141   6.514   1.107
 9058SOL    HW232022   3.076   6.640   1.161
 9059SOL     OW32023   3.250   6.433   0.143
 9059SOL    HW132024   3.157   6.448   0.157
 9059SOL    HW232025   3.269   6.475   0.059
 9060SOL     OW32026   3.598   7.287   1.125
 9060SOL    HW132027   3.682   7.326   1.098
 9060SOL    HW232028   3.532   7.335   1.075
 9061SOL     OW32029   3.127   7.322   1.075
 9061SOL    HW132030   3.180   7.388   1.120
 9061SOL    HW232031   3.144   7.241   1.124
 9062SOL     OW32032   2.009   6.840   1.024
 9062SOL    HW132033   1.969   6.783   1.091
 9062SOL    HW232034   1.935   6.884   0.983
 9063SOL     OW32035   2.428   7.223   1.683
 9063SOL    HW132036   2.391   7.301   1.723
 9063SOL    HW232037   2.486   7.255   1.614
 9064SOL     OW32038   2.766   5.677   0.127
 9064SOL    HW132039   2.788   5.710   0.039
 9064SOL    HW232040   2.843   5.627   0.153
 9065SOL     OW32041   3.655   5.758   0.502
 9065SOL    HW132042   3.707   5.738   0.424
 9065SOL    HW232043   3.617   5.674   0.528
 9066SOL     OW32044   3.248   7.146   0.501
 9066SOL    HW132045   3.318   7.188   0.450
 9066SOL    HW232046   3.195   7.219   0.533
 9067SOL     OW32047   1.972   7.421   1.861
 9067SOL    HW132048   1.935   7.348   1.909
 9067SOL    HW232049   1.926   7.498   1.894
 9068SOL     OW32050   3.186   6.482   0.683
 9068SOL    HW132051   3.264   6.446   0.641
 9068SOL    HW232052   3.177   6.570   0.646
 9069SOL     OW32053   2.681   6.852   1.407
 9069SOL    HW132054   2.665   6.921   1.473
 9069SOL    HW232055   2.607   6.860   1.346
 9070SOL     OW32056   2.557   7.181   0.167
 9070SOL    HW132057   2.543   7.270   0.134
 9070SOL    HW232058   2.472   7.139   0.161
 9071SOL     OW32059   3.480   7.292   1.392
 9071SOL    HW132060   3.505   7.306   1.301
 9071SOL    HW232061   3.481   7.380   1.431
 9072SOL     OW32062   3.709   5.754   0.987
 9072SOL    HW132063   3.733   5.670   0.948
 9072SOL    HW232064   3.628   5.779   0.941
 9073SOL     OW32065   2.075   5.871   0.691
 9073SOL    HW132066   1.990   5.909   0.670
 9073SOL    HW232067   2.076   5.867   0.787
 9074SOL     OW32068   3.033   7.191   9.969
 9074SOL    HW132069   3.113   7.139   9.961
 9074SOL    HW232070   3.057   7.278   9.935
 9075SOL     OW32071   2.741   6.604   1.300
 9075SOL    HW132072   2.732   6.633   1.210
 9075SOL    HW232073   2.723   6.683   1.352
 9076SOL     OW32074   2.839   6.501   0.298
 9076SOL    HW132075   2.891   6.527   0.221
 9076SOL    HW232076   2.876   6.416   0.323
 9077SOL     OW32077   3.427   7.159   0.087
 9077SOL    HW132078   3.379   7.168   0.005
 9077SOL    HW232079   3.518   7.175   0.064
 9078SOL     OW32080   2.210   6.916   1.536
 9078SOL    HW132081   2.235   6.934   1.445
 9078SOL    HW232082   2.134   6.858   1.529
 9079SOL     OW32083   3.465   6.826   1.289
 9079SOL    HW132084   3.554   6.849   1.313
 9079SOL    HW232085   3.412   6.900   1.319
 9080SOL     OW32086   2.950   6.700   0.719
 9080SOL    HW132087   2.880   6.659   0.769
 9080SOL    HW232088   2.918   6.701   0.629
 9081SOL     OW32089   2.875   5.791   0.951
 9081SOL    HW132090   2.865   5.755   0.863
 9081SOL    HW232091   2.850   5.719   1.009
 9082SOL     OW32092   2.478   7.062   0.521
 9082SOL    HW132093   2.514   7.001   0.457
 9082SOL    HW232094   2.401   7.099   0.477
 9083SOL     OW32095   3.637   5.920   1.416
 9083SOL    HW132096   3.692   5.997   1.400
 9083SOL    HW232097   3.665   5.858   1.348
 9084SOL     OW32098   2.136   6.915   0.233
 9084SOL    HW132099   2.049   6.899   0.196
 9084SOL    HW232100   2.119   6.942   0.323
 9085SOL     OW32101   1.988   6.647   1.791
 9085SOL    HW132102   1.913   6.601   1.828
 9085SOL    HW232103   2.064   6.593   1.814
 9086SOL     OW32104   2.545   5.773   1.475
 9086SOL    HW132105   2.632   5.743   1.445
 9086SOL    HW232106   2.559   5.796   1.567
 9087SOL     OW32107   1.922   5.935   9.993
 9087SOL    HW132108   1.872   5.975   0.064
 9087SOL    HW232109   1.942   6.008   9.933
 9088SOL     OW32110   3.257   6.423   1.382
 9088SOL    HW132111   3.198   6.472   1.324
 9088SOL    HW232112   3.345   6.441   1.349
 9089SOL     OW32113   1.886   5.742   0.296
 9089SOL    HW132114   1.832   5.794   0.236
 9089SOL    HW232115   1.971   5.786   0.296
 9090SOL     OW32116   3.004   6.850   0.158
 9090SOL    HW132117   2.920   6.892   0.144
 9090SOL    HW232118   3.031   6.878   0.246
 9091SOL     OW32119   2.519   6.401   1.399
 9091SOL    HW132120   2.512   6.450   1.481
 9091SOL    HW232121   2.484   6.314   1.420
 9092SOL     OW32122   3.434   7.449   0.976
 9092SOL    HW132123   3.444   7.503   0.898
 9092SOL    HW232124   3.385   7.503   1.037
 9093SOL     OW32125   2.550   6.100   1.650
 9093SOL    HW132126   2.463   6.127   1.679
 9093SOL    HW232127   2.564   6.016   1.694
 9094SOL     OW32128   3.340   6.756   1.631
 9094SOL    HW132129   3.311   6.777   1.720
 9094SOL    HW232130   3.425   6.799   1.622
 9095SOL     OW32131   2.183   7.373   1.481
 9095SOL    HW132132   2.172   7.390   1.388
 9095SOL    HW232133   2.101   7.402   1.521
 9096SOL     OW32134   3.495   6.465   1.244
 9096SOL    HW132135   3.498   6.385   1.191
 9096SOL    HW232136   3.480   6.535   1.182
 9097SOL     OW32137   3.051   5.909   0.450
 9097SOL    HW132138   3.108   5.833   0.441
 9097SOL    HW232139   3.087   5.958   0.525
 9098SOL     OW32140   2.457   6.308   0.641
 9098SOL    HW132141   2.500   6.393   0.632
 9098SOL    HW232142   2.380   6.314   0.584
 9099SOL     OW32143   3.574   5.934   1.685
 9099SOL    HW132144   3.594   5.937   1.592
 9099SOL    HW232145   3.491   5.888   1.690
 9100SOL     OW32146   3.599   6.539   1.491
 9100SOL    HW132147   3.586   6.634   1.494
 9100SOL    HW232148   3.572   6.515   1.403
 9101SOL     OW32149   2.736   6.959   0.121
 9101SOL    HW132150   2.682   6.922   0.051
 9101SOL    HW232151   2.702   7.047   0.134
 9102SOL     OW32152   2.515   7.361   0.939
 9102SOL    HW132153   2.482   7.451   0.942
 9102SOL    HW232154   2.610   7.371   0.935
 9103SOL     OW32155   2.746   6.573   0.876
 9103SOL    HW132156   2.787   6.507   0.932
 9103SOL    HW232157   2.701   6.632   0.936
 9104SOL     OW32158   3.013   6.582   0.090
 9104SOL    HW132159   3.003   6.674   0.114
 9104SOL    HW232160   3.082   6.582   0.024
 9105SOL     OW32161   3.790   7.102   0.860
 9105SOL    HW132162   3.751   7.121   0.775
 9105SOL    HW232163   3.717   7.066   0.912
 9106SOL     OW32164   2.076   6.897   1.853
 9106SOL    HW132165   2.050   6.812   1.817
 9106SOL    HW232166   2.010   6.916   1.920
 9107SOL     OW32167   1.962   6.817   0.695
 9107SOL    HW132168   1.919   6.754   0.753
 9107SOL    HW232169   2.035   6.768   0.656
 9108SOL     OW32170   3.702   5.703   1.255
 9108SOL    HW132171   3.674   5.613   1.236
 9108SOL    HW232172   3.719   5.742   1.170
 9109SOL     OW32173   2.270   6.003   0.528
 9109SOL    HW132174   2.299   5.938   0.463
 9109SOL    HW232175   2.206   5.956   0.581
 9110SOL     OW32176   3.590   7.021   1.033
 9110SOL    HW132177   3.498   7.005   1.010
 9110SOL    HW232178   3.590   7.109   1.069
 9111SOL     OW32179   2.265   6.183   1.264
 9111SOL    HW132180   2.291   6.113   1.324
 9111SOL    HW232181   2.227   6.138   1.189
 9112SOL     OW32182   2.680   7.197   0.654
 9112SOL    HW132183   2.681   7.281   0.609
 9112SOL    HW232184   2.606   7.149   0.616
 9113SOL     OW32185   2.834   5.576   1.125
 9113SOL    HW132186   2.775   5.502   1.117
 9113SOL    HW232187   2.922   5.537   1.125
 9114SOL     OW32188   2.576   6.882   0.342
 9114SOL    HW132189   2.580   6.786   0.348
 9114SOL    HW232190   2.637   6.904   0.271
 9115SOL     OW32191   2.531   7.150   1.316
 9115SOL    HW132192   2.531   7.236   1.359
 9115SOL    HW232193   2.612   7.148   1.266
 9116SOL     OW32194   3.151   5.686   0.159
 9116SOL    HW132195   3.114   5.721   0.078
 9116SOL    HW232196   3.096   5.609   0.179
 9117SOL     OW32197   3.160   6.059   0.663
 9117SOL    HW132198   3.225   6.095   0.602
 9117SOL    HW232199   3.095   6.128   0.672
 9118SOL     OW32200   3.448   5.830   0.882
 9118SOL    HW132201   3.426   5.775   0.807
 9118SOL    HW232202   3.471   5.915   0.845
 9119SOL     OW32203   1.892   6.597   0.299
 9119SOL    HW132204   1.985   6.586   0.315
 9119SOL    HW232205   1.851   6.521   0.340
 9120SOL     OW32206   2.768   7.246   0.334
 9120SOL    HW132207   2.693   7.219   0.281
 9120SOL    HW232208   2.734   7.312   0.393
 9121SOL     OW32209   2.120   5.934   2.918
 9121SOL    HW132210   2.151   5.874   2.986
 9121SOL    HW232211   2.037   5.896   2.890
 9122SOL     OW32212   1.873   6.018   2.446
 9122SOL    HW132213   1.796   6.037   2.499
 9122SOL    HW232214   1.840   5.967   2.372
 9123SOL     OW32215   2.428   6.852   3.086
 9123SOL    HW132216   2.368   6.790   3.126
 9123SOL    HW232217   2.378   6.892   3.014
 9124SOL     OW32218   3.327   7.034   2.593
 9124SOL    HW132219   3.308   7.114   2.642
 9124SOL    HW232220   3.304   7.056   2.503
 9125SOL     OW32221   3.036   6.288   2.548
 9125SOL    HW132222   3.091   6.363   2.526
 9125SOL    HW232223   2.982   6.318   2.621
 9126SOL     OW32224   3.672   6.164   2.093
 9126SOL    HW132225   3.635   6.177   2.006
 9126SOL    HW232226   3.614   6.099   2.134
 9127SOL     OW32227   2.666   6.757   2.960
 9127SOL    HW132228   2.584   6.783   3.003
 9127SOL    HW232229   2.672   6.815   2.884
 9128SOL     OW32230   2.771   6.345   3.713
 9128SOL    HW132231   2.693   6.380   3.757
 9128SOL    HW232232   2.769   6.386   3.626
 9129SOL     OW32233   2.547   6.577   2.517
 9129SOL    HW132234   2.605   6.584   2.593
 9129SOL    HW232235   2.469   6.628   2.541
 9130SOL     OW32236   2.581   6.764   3.688
 9130SOL    HW132237   2.601   6.845   3.733
 9130SOL    HW232238   2.498   6.780   3.644
 9131SOL     OW32239   2.255   6.971   2.913
 9131SOL    HW132240   2.171   6.928   2.896
 9131SOL    HW232241   2.265   7.033   2.842
 9132SOL     OW32242   3.306   7.092   3.182
 9132SOL    HW132243   3.354   7.170   3.209
 9132SOL    HW232244   3.234   7.085   3.244
 9133SOL     OW32245   2.307   5.964   3.337
 9133SOL    HW132246   2.365   5.888   3.336
 9133SOL    HW232247   2.223   5.930   3.367
 9134SOL     OW32248   3.433   6.009   2.594
 9134SOL    HW132249   3.346   5.992   2.559
 9134SOL    HW232250   3.439   6.104   2.599
 9135SOL     OW32251   2.114   7.287   2.389
 9135SOL    HW132252   2.129   7.372   2.430
 9135SOL    HW232253   2.034   7.297   2.339
 9136SOL     OW32254   3.041   6.891   3.554
 9136SOL    HW132255   3.053   6.921   3.644
 9136SOL    HW232256   2.974   6.823   3.559
 9137SOL     OW32257   2.168   7.018   2.427
 9137SOL    HW132258   2.142   7.110   2.433
 9137SOL    HW232259   2.104   6.971   2.481
 9138SOL     OW32260   2.112   6.616   2.771
 9138SOL    HW132261   2.025   6.603   2.733
 9138SOL    HW232262   2.101   6.688   2.832
 9139SOL     OW32263   2.470   7.387   3.321
 9139SOL    HW132264   2.378   7.376   3.343
 9139SOL    HW232265   2.484   7.481   3.321
 9140SOL     OW32266   2.476   6.567   2.003
 9140SOL    HW132267   2.518   6.628   1.941
 9140SOL    HW232268   2.507   6.595   2.089
 9141SOL     OW32269   3.423   5.743   3.334
 9141SOL    HW132270   3.422   5.821   3.279
 9141SOL    HW232271   3.369   5.766   3.410
 9142SOL     OW32272   2.027   6.250   2.402
 9142SOL    HW132273   1.977   6.168   2.397
 9142SOL    HW232274   1.995   6.293   2.481
 9143SOL     OW32275   3.713   7.331   2.232
 9143SOL    HW132276   3.802   7.329   2.266
 9143SOL    HW232277   3.703   7.418   2.195
 9144SOL     OW32278   1.941   7.187   2.002
 9144SOL    HW132279   1.908   7.098   2.013
 9144SOL    HW232280   1.925   7.229   2.086
 9145SOL     OW32281   3.589   6.523   2.492
 9145SOL    HW132282   3.622   6.459   2.429
 9145SOL    HW232283   3.541   6.587   2.439
 9146SOL     OW32284   3.511   6.720   2.306
 9146SOL    HW132285   3.592   6.702   2.258
 9146SOL    HW232286   3.530   6.798   2.358
 9147SOL     OW32287   1.970   6.372   3.457
 9147SOL    HW132288   1.995   6.434   3.526
 9147SOL    HW232289   1.895   6.413   3.414
 9148SOL     OW32290   2.460   6.962   2.612
 9148SOL    HW132291   2.404   6.885   2.605
 9148SOL    HW232292   2.450   7.007   2.528
 9149SOL     OW32293   3.148   6.823   3.237
 9149SOL    HW132294   3.153   6.736   3.197
 9149SOL    HW232295   3.182   6.810   3.326
 9150SOL     OW32296   2.681   5.610   2.411
 9150SOL    HW132297   2.721   5.686   2.369
 9150SOL    HW232298   2.588   5.633   2.418
 9151SOL     OW32299   2.050   6.530   3.176
 9151SOL    HW132300   2.120   6.478   3.138
 9151SOL    HW232301   1.972   6.505   3.128
 9152SOL     OW32302   3.388   6.596   2.083
 9152SOL    HW132303   3.326   6.531   2.116
 9152SOL    HW232304   3.418   6.642   2.161
 9153SOL     OW32305   3.076   7.469   3.563
 9153SOL    HW132306   3.071   7.521   3.484
 9153SOL    HW232307   3.054   7.380   3.535
 9154SOL     OW32308   2.191   5.890   3.667
 9154SOL    HW132309   2.185   5.982   3.641
 9154SOL    HW232310   2.105   5.870   3.704
 9155SOL     OW32311   3.570   7.192   2.423
 9155SOL    HW132312   3.622   7.241   2.360
 9155SOL    HW232313   3.479   7.209   2.399
 9156SOL     OW32314   2.466   6.313   2.126
 9156SOL    HW132315   2.459   6.397   2.080
 9156SOL    HW232316   2.403   6.318   2.197
 9157SOL     OW32317   3.136   5.973   2.813
 9157SOL    HW132318   3.044   5.947   2.807
 9157SOL    HW232319   3.177   5.905   2.866
 9158SOL     OW32320   3.413   7.245   2.155
 9158SOL    HW132321   3.476   7.316   2.145
 9158SOL    HW232322   3.389   7.221   2.066
 9159SOL     OW32323   2.672   6.193   3.283
 9159SOL    HW132324   2.643   6.171   3.371
 9159SOL    HW232325   2.643   6.120   3.229
 9160SOL     OW32326   3.248   6.102   3.530
 9160SOL    HW132327   3.247   6.138   3.619
 9160SOL    HW232328   3.287   6.015   3.540
 9161SOL     OW32329   2.797   6.485   3.456
 9161SOL    HW132330   2.852   6.422   3.409
 9161SOL    HW232331   2.741   6.523   3.388
 9162SOL     OW32332   2.884   5.955   3.063
 9162SOL    HW132333   2.794   5.976   3.087
 9162SOL    HW232334   2.878   5.927   2.971
 9163SOL     OW32335   2.936   6.275   2.280
 9163SOL    HW132336   2.947   6.260   2.374
 9163SOL    HW232337   2.849   6.241   2.260
 9164SOL     OW32338   1.920   6.340   2.638
 9164SOL    HW132339   1.875   6.280   2.698
 9164SOL    HW232340   1.850   6.395   2.603
 9165SOL     OW32341   1.960   7.420   3.426
 9165SOL    HW132342   1.964   7.416   3.522
 9165SOL    HW232343   1.922   7.506   3.407
 9166SOL     OW32344   2.713   5.929   2.063
 9166SOL    HW132345   2.756   5.966   1.986
 9166SOL    HW232346   2.645   5.873   2.028
 9167SOL     OW32347   3.583   6.149   3.697
 9167SOL    HW132348   3.555   6.227   3.649
 9167SOL    HW232349   3.578   6.078   3.633
 9168SOL     OW32350   3.242   6.752   2.426
 9168SOL    HW132351   3.322   6.755   2.373
 9168SOL    HW232352   3.180   6.807   2.379
 9169SOL     OW32353   2.415   5.740   2.804
 9169SOL    HW132354   2.421   5.766   2.896
 9169SOL    HW232355   2.391   5.821   2.758
 9170SOL     OW32356   2.831   7.008   2.369
 9170SOL    HW132357   2.762   6.972   2.314
 9170SOL    HW232358   2.796   7.092   2.399
 9171SOL     OW32359   2.183   7.395   2.730
 9171SOL    HW132360   2.242   7.321   2.743
 9171SOL    HW232361   2.205   7.456   2.801
 9172SOL     OW32362   3.657   6.577   2.749
 9172SOL    HW132363   3.617   6.557   2.664
 9172SOL    HW232364   3.583   6.603   2.804
 9173SOL     OW32365   3.101   7.100   3.369
 9173SOL    HW132366   3.089   7.031   3.434
 9173SOL    HW232367   3.018   7.147   3.369
 9174SOL     OW32368   2.097   6.478   2.132
 9174SOL    HW132369   2.133   6.487   2.044
 9174SOL    HW232370   2.091   6.383   2.146
 9175SOL     OW32371   3.376   6.283   2.578
 9175SOL    HW132372   3.338   6.271   2.666
 9175SOL    HW232373   3.335   6.362   2.545
 9176SOL     OW32374   2.334   6.844   3.580
 9176SOL    HW132375   2.293   6.841   3.494
 9176SOL    HW232376   2.261   6.853   3.642
 9177SOL     OW32377   3.014   7.313   2.082
 9177SOL    HW132378   2.967   7.388   2.046
 9177SOL    HW232379   3.041   7.262   2.006
 9178SOL     OW32380   2.049   5.869   3.380
 9178SOL    HW132381   1.968   5.889   3.333
 9178SOL    HW232382   2.032   5.784   3.420
 9179SOL     OW32383   3.489   6.942   1.972
 9179SOL    HW132384   3.456   7.029   1.951
 9179SOL    HW232385   3.421   6.883   1.941
 9180SOL     OW32386   2.309   7.271   2.199
 9180SOL    HW132387   2.247   7.266   2.272
 9180SOL    HW232388   2.261   7.318   2.131
 9181SOL     OW32389   3.277   5.710   2.312
 9181SOL    HW132390   3.270   5.676   2.223
 9181SOL    HW232391   3.371   5.722   2.325
 9182SOL     OW32392   2.064   7.340   3.072
 9182SOL    HW132393   2.000   7.302   3.131
 9182SOL    HW232394   2.020   7.342   2.987
 9183SOL     OW32395   2.768   7.313   2.739
 9183SOL    HW132396   2.789   7.238   2.795
 9183SOL    HW232397   2.739   7.273   2.657
 9184SOL     OW32398   2.291   6.281   2.337
 9184SOL    HW132399   2.312   6.189   2.350
 9184SOL    HW232400   2.196   6.287   2.350
 9185SOL     OW32401   3.315   5.835   3.575
 9185SOL    HW132402   3.344   5.840   3.667
 9185SOL    HW232403   3.222   5.813   3.580
 9186SOL     OW32404   2.505   5.702   1.976
 9186SOL    HW132405   2.487   5.633   2.040
 9186SOL    HW232406   2.454   5.678   1.899
 9187SOL     OW32407   2.602   5.879   3.639
 9187SOL    HW132408   2.588   5.830   3.720
 9187SOL    HW232409   2.524   5.861   3.586
 9188SOL     OW32410   2.828   7.107   2.918
 9188SOL    HW132411   2.775   7.040   2.874
 9188SOL    HW232412   2.846   7.071   3.005
 9189SOL     OW32413   3.181   6.175   3.277
 9189SOL    HW132414   3.208   6.157   3.367
 9189SOL    HW232415   3.208   6.266   3.262
 9190SOL     OW32416   2.698   6.930   2.750
 9190SOL    HW132417   2.765   6.921   2.682
 9190SOL    HW232418   2.616   6.942   2.702
 9191SOL     OW32419   2.794   6.104   2.734
 9191SOL    HW132420   2.770   6.097   2.642
 9191SOL    HW232421   2.812   6.014   2.761
 9192SOL     OW32422   2.421   5.694   2.407
 9192SOL    HW132423   2.333   5.690   2.444
 9192SOL    HW232424   2.413   5.751   2.331
 9193SOL     OW32425   3.273   6.782   1.900
 9193SOL    HW132426   3.296   6.709   1.958
 9193SOL    HW232427   3.190   6.814   1.933
 9194SOL     OW32428   2.160   5.700   2.045
 9194SOL    HW132429   2.188   5.762   1.978
 9194SOL    HW232430   2.233   5.638   2.052
 9195SOL     OW32431   2.806   5.835   2.307
 9195SOL    HW132432   2.771   5.864   2.223
 9195SOL    HW232433   2.900   5.855   2.301
 9196SOL     OW32434   2.925   6.298   3.292
 9196SOL    HW132435   2.847   6.243   3.300
 9196SOL    HW232436   2.997   6.236   3.287
 9197SOL     OW32437   3.159   7.207   2.725
 9197SOL    HW132438   3.153   7.273   2.657
 9197SOL    HW232439   3.144   7.254   2.807
 9198SOL     OW32440   2.315   6.713   2.584
 9198SOL    HW132441   2.249   6.684   2.647
 9198SOL    HW232442   2.273   6.705   2.499
 9199SOL     OW32443   3.169   7.389   2.501
 9199SOL    HW132444   3.222   7.450   2.450
 9199SOL    HW232445   3.087   7.436   2.518
 9200SOL     OW32446   2.875   6.087   1.886
 9200SOL    HW132447   2.842   6.173   1.862
 9200SOL    HW232448   2.935   6.103   1.958
 9201SOL     OW32449   1.963   6.164   3.271
 9201SOL    HW132450   2.046   6.158   3.224
 9201SOL    HW232451   1.973   6.242   3.326
 9202SOL     OW32452   2.434   5.805   3.073
 9202SOL    HW132453   2.471   5.775   3.156
 9202SOL    HW232454   2.339   5.799   3.087
 9203SOL     OW32455   2.738   6.053   2.474
 9203SOL    HW132456   2.678   6.102   2.417
 9203SOL    HW232457   2.752   5.970   2.427
 9204SOL     OW32458   2.894   5.630   2.600
 9204SOL    HW132459   2.820   5.635   2.539
 9204SOL    HW232460   2.878   5.550   2.650
 9205SOL     OW32461   3.220   6.739   2.710
 9205SOL    HW132462   3.181   6.654   2.732
 9205SOL    HW232463   3.229   6.738   2.615
 9206SOL     OW32464   3.278   6.224   2.832
 9206SOL    HW132465   3.227   6.143   2.833
 9206SOL    HW232466   3.343   6.211   2.900
 9207SOL     OW32467   3.702   6.373   2.282
 9207SOL    HW132468   3.762   6.315   2.328
 9207SOL    HW232469   3.669   6.321   2.209
 9208SOL     OW32470   2.408   6.968   2.036
 9208SOL    HW132471   2.328   6.951   2.086
 9208SOL    HW232472   2.389   6.936   1.948
 9209SOL     OW32473   3.566   6.923   2.486
 9209SOL    HW132474   3.582   7.011   2.450
 9209SOL    HW232475   3.486   6.933   2.538
 9210SOL     OW32476   3.250   6.150   1.908
 9210SOL    HW132477   3.191   6.122   1.978
 9210SOL    HW232478   3.338   6.133   1.942
 9211SOL     OW32479   2.403   5.863   2.190
 9211SOL    HW132480   2.433   5.808   2.117
 9211SOL    HW232481   2.365   5.940   2.148
 9212SOL     OW32482   3.593   6.812   3.463
 9212SOL    HW132483   3.611   6.794   3.556
 9212SOL    HW232484   3.617   6.904   3.453
 9213SOL     OW32485   2.918   6.978   3.166
 9213SOL    HW132486   2.882   7.044   3.226
 9213SOL    HW232487   2.993   6.942   3.213
 9214SOL     OW32488   3.458   7.207   3.532
 9214SOL    HW132489   3.435   7.249   3.450
 9214SOL    HW232490   3.531   7.149   3.509
 9215SOL     OW32491   2.950   6.781   2.982
 9215SOL    HW132492   2.931   6.849   3.047
 9215SOL    HW232493   2.864   6.751   2.953
 9216SOL     OW32494   3.447   6.676   2.914
 9216SOL    HW132495   3.440   6.742   2.984
 9216SOL    HW232496   3.372   6.693   2.857
 9217SOL     OW32497   2.779   5.682   3.246
 9217SOL    HW132498   2.787   5.686   3.150
 9217SOL    HW232499   2.860   5.721   3.278
 9218SOL     OW32500   2.853   6.691   3.631
 9218SOL    HW132501   2.764   6.722   3.651
 9218SOL    HW232502   2.839   6.618   3.571
 9219SOL     OW32503   2.601   6.635   2.248
 9219SOL    HW132504   2.566   6.610   2.334
 9219SOL    HW232505   2.691   6.604   2.248
 9220SOL     OW32506   2.272   6.376   3.087
 9220SOL    HW132507   2.332   6.392   3.160
 9220SOL    HW232508   2.247   6.284   3.098
 9221SOL     OW32509   3.131   5.926   3.171
 9221SOL    HW132510   3.155   6.014   3.202
 9221SOL    HW232511   3.044   5.938   3.132
 9222SOL     OW32512   1.895   7.208   3.268
 9222SOL    HW132513   1.825   7.234   3.209
 9222SOL    HW232514   1.911   7.286   3.322
 9223SOL     OW32515   2.193   6.674   2.338
 9223SOL    HW132516   2.194   6.747   2.276
 9223SOL    HW232517   2.171   6.598   2.284
 9224SOL     OW32518   2.353   6.113   2.738
 9224SOL    HW132519   2.381   6.166   2.664
 9224SOL    HW232520   2.419   6.128   2.806
 9225SOL     OW32521   3.090   6.942   2.280
 9225SOL    HW132522   3.139   7.023   2.294
 9225SOL    HW232523   3.000   6.965   2.303
 9226SOL     OW32524   3.192   6.960   2.958
 9226SOL    HW132525   3.223   7.014   3.030
 9226SOL    HW232526   3.130   6.899   2.998
 9227SOL     OW32527   3.371   6.200   2.304
 9227SOL    HW132528   3.375   6.227   2.396
 9227SOL    HW232529   3.310   6.262   2.263
 9228SOL     OW32530   2.260   7.149   3.124
 9228SOL    HW132531   2.243   7.100   3.044
 9228SOL    HW232532   2.205   7.227   3.116
 9229SOL     OW32533   2.333   6.285   3.547
 9229SOL    HW132534   2.347   6.319   3.459
 9229SOL    HW232535   2.256   6.228   3.539
 9230SOL     OW32536   3.513   6.379   3.559
 9230SOL    HW132537   3.421   6.404   3.554
 9230SOL    HW232538   3.553   6.419   3.481
 9231SOL     OW32539   2.824   5.639   3.566
 9231SOL    HW132540   2.830   5.733   3.582
 9231SOL    HW232541   2.740   5.613   3.604
 9232SOL     OW32542   2.381   5.721   3.573
 9232SOL    HW132543   2.336   5.643   3.541
 9232SOL    HW232544   2.311   5.777   3.608
 9233SOL     OW32545   2.460   6.443   2.881
 9233SOL    HW132546   2.408   6.454   2.802
 9233SOL    HW232547   2.395   6.434   2.951
 9234SOL     OW32548   3.149   6.471   2.816
 9234SOL    HW132549   3.058   6.444   2.806
 9234SOL    HW232550   3.198   6.389   2.819
 9235SOL     OW32551   3.061   6.096   2.105
 9235SOL    HW132552   3.067   6.019   2.162
 9235SOL    HW232553   3.016   6.162   2.159
 9236SOL     OW32554   2.173   5.776   3.133
 9236SOL    HW132555   2.112   5.804   3.201
 9236SOL    HW232556   2.153   5.683   3.120
 9237SOL     OW32557   1.973   6.959   3.168
 9237SOL    HW132558   1.907   6.904   3.211
 9237SOL    HW232559   1.950   7.048   3.193
 9238SOL     OW32560   2.579   6.196   2.894
 9238SOL    HW132561   2.643   6.183   2.824
 9238SOL    HW232562   2.548   6.286   2.881
 9239SOL     OW32563   3.623   6.577   3.723
 9239SOL    HW132564   3.589   6.501   3.675
 9239SOL    HW232565   3.555   6.597   3.787
 9240SOL     OW32566   2.154   5.678   2.503
 9240SOL    HW132567   2.061   5.674   2.482
 9240SOL    HW232568   2.163   5.626   2.583
 9241SOL     OW32569   3.483   5.980   2.191
 9241SOL    HW132570   3.496   5.918   2.263
 9241SOL    HW232571   3.437   6.053   2.231
 9242SOL     OW32572   2.895   6.351   2.802
 9242SOL    HW132573   2.866   6.363   2.893
 9242SOL    HW232574   2.863   6.264   2.778
 9243SOL     OW32575   2.906   7.181   3.596
 9243SOL    HW132576   2.856   7.192   3.515
 9243SOL    HW232577   2.861   7.111   3.643
 9244SOL     OW32578   3.695   7.088   3.434
 9244SOL    HW132579   3.683   7.151   3.364
 9244SOL    HW232580   3.742   7.136   3.502
 9245SOL     OW32581   2.260   6.472   3.748
 9245SOL    HW132582   2.345   6.504   3.777
 9245SOL    HW232583   2.280   6.402   3.686
 9246SOL     OW32584   3.387   5.838   1.965
 9246SOL    HW132585   3.328   5.777   2.010
 9246SOL    HW232586   3.423   5.892   2.036
 9247SOL     OW32587   3.174   6.416   1.910
 9247SOL    HW132588   3.194   6.323   1.898
 9247SOL    HW232589   3.194   6.456   1.826
 9248SOL     OW32590   2.959   6.908   2.593
 9248SOL    HW132591   2.951   6.815   2.574
 9248SOL    HW232592   2.921   6.952   2.516
 9249SOL     OW32593   2.151   6.325   2.836
 9249SOL    HW132594   2.119   6.403   2.790
 9249SOL    HW232595   2.183   6.358   2.919
 9250SOL     OW32596   3.017   5.934   3.558
 9250SOL    HW132597   2.952   5.971   3.618
 9250SOL    HW232598   3.073   6.009   3.535
 9251SOL     OW32599   3.029   5.743   3.357
 9251SOL    HW132600   3.016   5.803   3.430
 9251SOL    HW232601   3.074   5.795   3.290
 9252SOL     OW32602   1.871   6.920   2.032
 9252SOL    HW132603   1.781   6.918   1.999
 9252SOL    HW232604   1.879   6.841   2.084
 9253SOL     OW32605   1.931   7.332   2.822
 9253SOL    HW132606   1.888   7.263   2.771
 9253SOL    HW232607   2.010   7.353   2.773
 9254SOL     OW32608   2.356   7.180   2.763
 9254SOL    HW132609   2.425   7.219   2.817
 9254SOL    HW232610   2.402   7.117   2.707
 9255SOL     OW32611   2.794   6.371   3.058
 9255SOL    HW132612   2.849   6.356   3.135
 9255SOL    HW232613   2.721   6.310   3.068
 9256SOL     OW32614   1.880   6.110   2.818
 9256SOL    HW132615   1.826   6.034   2.795
 9256SOL    HW232616   1.831   6.154   2.887
 9257SOL     OW32617   2.091   6.134   3.549
 9257SOL    HW132618   2.059   6.061   3.495
 9257SOL    HW232619   2.034   6.207   3.527
 9258SOL     OW32620   3.266   6.494   3.522
 9258SOL    HW132621   3.272   6.589   3.510
 9258SOL    HW232622   3.241   6.461   3.435
 9259SOL     OW32623   2.692   6.173   2.208
 9259SOL    HW132624   2.685   6.090   2.160
 9259SOL    HW232625   2.615   6.222   2.181
 9260SOL     OW32626   3.487   6.205   3.027
 9260SOL    HW132627   3.471   6.140   3.095
 9260SOL    HW232628   3.578   6.187   2.999
 9261SOL     OW32629   2.172   7.128   3.637
 9261SOL    HW132630   2.113   7.195   3.671
 9261SOL    HW232631   2.125   7.046   3.647
 9262SOL     OW32632   2.616   6.010   3.088
 9262SOL    HW132633   2.548   5.942   3.081
 9262SOL    HW232634   2.592   6.073   3.020
 9263SOL     OW32635   2.826   7.197   3.318
 9263SOL    HW132636   2.738   7.187   3.283
 9263SOL    HW232637   2.854   7.284   3.290
 9264SOL     OW32638   2.318   6.081   2.056
 9264SOL    HW132639   2.363   6.165   2.063
 9264SOL    HW232640   2.229   6.103   2.029
 9265SOL     OW32641   2.057   6.700   3.390
 9265SOL    HW132642   2.048   6.649   3.471
 9265SOL    HW232643   2.053   6.635   3.320
 9266SOL     OW32644   3.147   6.605   3.057
 9266SOL    HW132645   3.161   6.555   2.977
 9266SOL    HW232646   3.074   6.664   3.036
 9267SOL     OW32647   3.182   6.390   2.189
 9267SOL    HW132648   3.096   6.358   2.215
 9267SOL    HW232649   3.176   6.403   2.094
 9268SOL     OW32650   3.631   7.332   3.021
 9268SOL    HW132651   3.702   7.329   2.957
 9268SOL    HW232652   3.557   7.372   2.974
 9269SOL     OW32653   3.120   7.333   2.975
 9269SOL    HW132654   3.167   7.408   3.012
 9269SOL    HW232655   3.094   7.281   3.051
 9270SOL     OW32656   2.014   6.840   2.916
 9270SOL    HW132657   1.994   6.877   3.002
 9270SOL    HW232658   1.931   6.839   2.869
 9271SOL     OW32659   2.517   7.300   3.580
 9271SOL    HW132660   2.452   7.360   3.615
 9271SOL    HW232661   2.530   7.329   3.490
 9272SOL     OW32662   3.569   5.750   2.342
 9272SOL    HW132663   3.622   5.735   2.264
 9272SOL    HW232664   3.563   5.665   2.384
 9273SOL     OW32665   3.255   7.160   2.360
 9273SOL    HW132666   3.299   7.188   2.280
 9273SOL    HW232667   3.213   7.239   2.394
 9274SOL     OW32668   2.017   7.362   3.692
 9274SOL    HW132669   1.966   7.303   3.747
 9274SOL    HW232670   2.057   7.423   3.754
 9275SOL     OW32671   3.219   6.477   2.452
 9275SOL    HW132672   3.207   6.454   2.359
 9275SOL    HW232673   3.213   6.572   2.454
 9276SOL     OW32674   2.535   7.211   1.996
 9276SOL    HW132675   2.528   7.219   1.901
 9276SOL    HW232676   2.481   7.134   2.017
 9277SOL     OW32677   3.475   7.304   3.258
 9277SOL    HW132678   3.525   7.314   3.177
 9277SOL    HW232679   3.451   7.393   3.283
 9278SOL     OW32680   3.698   5.734   2.839
 9278SOL    HW132681   3.716   5.643   2.815
 9278SOL    HW232682   3.609   5.751   2.808
 9279SOL     OW32683   2.106   5.954   2.575
 9279SOL    HW132684   2.026   5.973   2.527
 9279SOL    HW232685   2.121   5.860   2.560
 9280SOL     OW32686   3.081   7.209   1.836
 9280SOL    HW132687   2.998   7.170   1.811
 9280SOL    HW232688   3.095   7.279   1.772
 9281SOL     OW32689   2.672   6.574   3.215
 9281SOL    HW132690   2.710   6.517   3.148
 9281SOL    HW232691   2.665   6.659   3.173
 9282SOL     OW32692   2.867   6.550   2.263
 9282SOL    HW132693   2.899   6.577   2.177
 9282SOL    HW232694   2.879   6.455   2.265
 9283SOL     OW32695   3.358   7.173   1.892
 9283SOL    HW132696   3.265   7.182   1.873
 9283SOL    HW232697   3.401   7.180   1.807
 9284SOL     OW32698   2.222   6.897   3.298
 9284SOL    HW132699   2.159   6.948   3.247
 9284SOL    HW232700   2.172   6.823   3.332
 9285SOL     OW32701   3.465   6.871   3.136
 9285SOL    HW132702   3.438   6.814   3.208
 9285SOL    HW232703   3.408   6.947   3.145
 9286SOL     OW32704   2.914   6.648   2.526
 9286SOL    HW132705   2.841   6.618   2.580
 9286SOL    HW232706   2.892   6.619   2.437
 9287SOL     OW32707   2.888   5.837   2.802
 9287SOL    HW132708   2.890   5.793   2.717
 9287SOL    HW232709   2.863   5.769   2.864
 9288SOL     OW32710   2.481   7.106   2.373
 9288SOL    HW132711   2.515   7.037   2.316
 9288SOL    HW232712   2.406   7.142   2.326
 9289SOL     OW32713   3.606   5.975   3.257
 9289SOL    HW132714   3.677   6.039   3.250
 9289SOL    HW232715   3.632   5.903   3.201
 9290SOL     OW32716   2.179   6.909   2.178
 9290SOL    HW132717   2.087   6.907   2.148
 9290SOL    HW232718   2.176   6.953   2.262
 9291SOL     OW32719   2.025   6.584   3.639
 9291SOL    HW132720   1.945   6.570   3.690
 9291SOL    HW232721   2.095   6.547   3.693
 9292SOL     OW32722   2.511   5.743   3.328
 9292SOL    HW132723   2.607   5.736   3.331
 9292SOL    HW232724   2.484   5.729   3.419
 9293SOL     OW32725   3.262   6.439   3.247
 9293SOL    HW132726   3.203   6.490   3.192
 9293SOL    HW232727   3.348   6.451   3.208
 9294SOL     OW32728   1.913   5.682   2.158
 9294SOL    HW132729   1.860   5.758   2.136
 9294SOL    HW232730   1.997   5.697   2.116
 9295SOL     OW32731   3.034   6.898   1.992
 9295SOL    HW132732   2.940   6.913   1.984
 9295SOL    HW232733   3.053   6.913   2.085
 9296SOL     OW32734   2.465   6.391   3.286
 9296SOL    HW132735   2.520   6.469   3.278
 9296SOL    HW232736   2.527   6.319   3.292
 9297SOL     OW32737   3.427   7.454   2.896
 9297SOL    HW132738   3.425   7.519   2.826
 9297SOL    HW232739   3.360   7.483   2.957
 9298SOL     OW32740   2.581   6.143   3.530
 9298SOL    HW132741   2.499   6.183   3.560
 9298SOL    HW232742   2.591   6.065   3.585
 9299SOL     OW32743   3.316   6.762   3.461
 9299SOL    HW132744   3.278   6.798   3.541
 9299SOL    HW232745   3.408   6.787   3.465
 9300SOL     OW32746   2.221   7.319   3.429
 9300SOL    HW132747   2.132   7.349   3.410
 9300SOL    HW232748   2.209   7.245   3.488
 9301SOL     OW32749   3.504   6.475   3.110
 9301SOL    HW132750   3.501   6.387   3.073
 9301SOL    HW232751   3.486   6.533   3.036
 9302SOL     OW32752   3.079   5.906   2.309
 9302SOL    HW132753   3.143   5.834   2.307
 9302SOL    HW232754   3.099   5.953   2.389
 9303SOL     OW32755   2.445   6.320   2.567
 9303SOL    HW132756   2.489   6.402   2.546
 9303SOL    HW232757   2.390   6.302   2.490
 9304SOL     OW32758   3.588   5.925   3.530
 9304SOL    HW132759   3.590   5.941   3.436
 9304SOL    HW232760   3.506   5.878   3.545
 9305SOL     OW32761   3.631   6.529   3.354
 9305SOL    HW132762   3.619   6.621   3.375
 9305SOL    HW232763   3.586   6.517   3.270
 9306SOL     OW32764   2.748   6.992   1.937
 9306SOL    HW132765   2.704   7.056   1.993
 9306SOL    HW232766   2.773   7.042   1.859
 9307SOL     OW32767   2.533   7.326   2.921
 9307SOL    HW132768   2.487   7.404   2.953
 9307SOL    HW232769   2.600   7.360   2.862
 9308SOL     OW32770   2.729   6.574   2.728
 9308SOL    HW132771   2.776   6.495   2.755
 9308SOL    HW232772   2.685   6.603   2.808
 9309SOL     OW32773   2.964   6.576   2.006
 9309SOL    HW132774   2.925   6.625   1.933
 9309SOL    HW232775   3.028   6.519   1.965
 9310SOL     OW32776   3.716   7.149   2.657
 9310SOL    HW132777   3.662   7.176   2.583
 9310SOL    HW232778   3.656   7.100   2.713
 9311SOL     OW32779   2.073   6.867   3.690
 9311SOL    HW132780   2.050   6.780   3.658
 9311SOL    HW232781   2.014   6.882   3.763
 9312SOL     OW32782   1.992   6.831   2.539
 9312SOL    HW132783   1.939   6.782   2.602
 9312SOL    HW232784   2.021   6.765   2.475
 9313SOL     OW32785   2.479   7.050   3.464
 9313SOL    HW132786   2.435   6.990   3.524
 9313SOL    HW232787   2.491   7.130   3.515
 9314SOL     OW32788   3.695   5.761   3.113
 9314SOL    HW132789   3.657   5.674   3.128
 9314SOL    HW232790   3.699   5.769   3.017
 9315SOL     OW32791   2.342   6.027   2.415
 9315SOL    HW132792   2.359   5.961   2.348
 9315SOL    HW232793   2.268   5.992   2.465
 9316SOL     OW32794   3.568   7.028   2.884
 9316SOL    HW132795   3.525   7.113   2.893
 9316SOL    HW232796   3.513   6.968   2.936
 9317SOL     OW32797   2.203   6.116   3.131
 9317SOL    HW132798   2.246   6.063   3.199
 9317SOL    HW232799   2.174   6.053   3.066
 9318SOL     OW32800   2.699   7.233   2.479
 9318SOL    HW132801   2.703   7.307   2.419
 9318SOL    HW232802   2.616   7.191   2.459
 9319SOL     OW32803   3.239   5.769   2.971
 9319SOL    HW132804   3.210   5.679   2.985
 9319SOL    HW232805   3.209   5.816   3.048
 9320SOL     OW32806   2.823   5.624   2.968
 9320SOL    HW132807   2.747   5.596   2.917
 9320SOL    HW232808   2.879   5.547   2.972
 9321SOL     OW32809   2.606   6.911   2.221
 9321SOL    HW132810   2.548   6.927   2.147
 9321SOL    HW232811   2.605   6.816   2.232
 9322SOL     OW32812   2.577   7.191   3.168
 9322SOL    HW132813   2.543   7.266   3.218
 9322SOL    HW232814   2.574   7.219   3.077
 9323SOL     OW32815   3.234   5.623   2.053
 9323SOL    HW132816   3.261   5.570   1.978
 9323SOL    HW232817   3.152   5.585   2.082
 9324SOL     OW32818   3.156   6.035   2.543
 9324SOL    HW132819   3.115   6.121   2.535
 9324SOL    HW232820   3.144   6.011   2.635
 9325SOL     OW32821   3.436   5.773   2.770
 9325SOL    HW132822   3.368   5.784   2.837
 9325SOL    HW232823   3.427   5.850   2.714
 9326SOL     OW32824   1.919   6.693   2.173
 9326SOL    HW132825   1.973   6.614   2.164
 9326SOL    HW232826   1.845   6.666   2.227
 9327SOL     OW32827   2.091   6.155   3.840
 9327SOL    HW132828   2.004   6.162   3.880
 9327SOL    HW232829   2.075   6.155   3.746
 9328SOL     OW32830   2.081   5.863   4.713
 9328SOL    HW132831   2.108   5.827   4.797
 9328SOL    HW232832   1.988   5.840   4.705
 9329SOL     OW32833   1.853   5.985   4.377
 9329SOL    HW132834   1.779   6.019   4.427
 9329SOL    HW232835   1.817   5.911   4.327
 9330SOL     OW32836   3.425   7.124   4.435
 9330SOL    HW132837   3.378   7.114   4.518
 9330SOL    HW232838   3.355   7.132   4.370
 9331SOL     OW32839   3.046   6.267   4.432
 9331SOL    HW132840   3.084   6.353   4.413
 9331SOL    HW232841   2.995   6.280   4.512
 9332SOL     OW32842   3.666   6.130   3.953
 9332SOL    HW132843   3.632   6.138   3.864
 9332SOL    HW232844   3.600   6.078   3.999
 9333SOL     OW32845   2.749   6.329   5.561
 9333SOL    HW132846   2.693   6.384   5.616
 9333SOL    HW232847   2.768   6.384   5.485
 9334SOL     OW32848   2.551   6.584   4.371
 9334SOL    HW132849   2.606   6.592   4.449
 9334SOL    HW232850   2.475   6.638   4.390
 9335SOL     OW32851   2.608   6.747   5.556
 9335SOL    HW132852   2.647   6.825   5.595
 9335SOL    HW232853   2.533   6.780   5.506
 9336SOL     OW32854   2.211   6.990   4.755
 9336SOL    HW132855   2.139   6.929   4.743
 9336SOL    HW232856   2.200   7.053   4.684
 9337SOL     OW32857   3.316   7.091   5.124
 9337SOL    HW132858   3.367   7.171   5.128
 9337SOL    HW232859   3.242   7.106   5.182
 9338SOL     OW32860   2.297   5.947   5.178
 9338SOL    HW132861   2.368   5.885   5.195
 9338SOL    HW232862   2.218   5.900   5.203
 9339SOL     OW32863   3.449   6.021   4.454
 9339SOL    HW132864   3.361   6.013   4.416
 9339SOL    HW232865   3.447   6.105   4.500
 9340SOL     OW32866   2.081   7.269   4.227
 9340SOL    HW132867   2.105   7.353   4.268
 9340SOL    HW232868   2.007   7.291   4.172
 9341SOL     OW32869   3.024   6.901   5.433
 9341SOL    HW132870   3.040   6.928   5.523
 9341SOL    HW232871   2.956   6.834   5.439
 9342SOL     OW32872   2.169   7.022   4.296
 9342SOL    HW132873   2.135   7.110   4.283
 9342SOL    HW232874   2.099   6.976   4.343
 9343SOL     OW32875   2.209   6.632   4.659
 9343SOL    HW132876   2.165   6.548   4.671
 9343SOL    HW232877   2.145   6.697   4.687
 9344SOL     OW32878   2.461   7.427   5.161
 9344SOL    HW132879   2.372   7.399   5.184
 9344SOL    HW232880   2.463   7.520   5.182
 9345SOL     OW32881   2.511   6.545   3.851
 9345SOL    HW132882   2.538   6.614   3.791
 9345SOL    HW232883   2.533   6.578   3.938
 9346SOL     OW32884   3.469   5.731   5.160
 9346SOL    HW132885   3.516   5.813   5.143
 9346SOL    HW232886   3.417   5.749   5.238
 9347SOL     OW32887   2.004   6.222   4.296
 9347SOL    HW132888   1.954   6.143   4.314
 9347SOL    HW232889   1.987   6.279   4.371
 9348SOL     OW32890   3.719   7.345   4.044
 9348SOL    HW132891   3.801   7.337   4.093
 9348SOL    HW232892   3.719   7.435   4.011
 9349SOL     OW32893   1.922   7.169   3.854
 9349SOL    HW132894   1.898   7.078   3.874
 9349SOL    HW232895   1.899   7.217   3.933
 9350SOL     OW32896   3.647   6.451   4.353
 9350SOL    HW132897   3.645   6.428   4.260
 9350SOL    HW232898   3.566   6.415   4.388
 9351SOL     OW32899   3.490   6.706   4.145
 9351SOL    HW132900   3.577   6.689   4.109
 9351SOL    HW232901   3.505   6.774   4.211
 9352SOL     OW32902   1.967   6.367   5.294
 9352SOL    HW132903   2.048   6.418   5.301
 9352SOL    HW232904   1.901   6.431   5.267
 9353SOL     OW32905   2.405   7.007   4.464
 9353SOL    HW132906   2.393   6.913   4.469
 9353SOL    HW232907   2.339   7.036   4.400
 9354SOL     OW32908   3.098   6.787   5.193
 9354SOL    HW132909   3.040   6.834   5.133
 9354SOL    HW232910   3.082   6.828   5.279
 9355SOL     OW32911   2.699   5.625   4.257
 9355SOL    HW132912   2.724   5.713   4.228
 9355SOL    HW232913   2.604   5.631   4.272
 9356SOL     OW32914   2.052   6.557   5.070
 9356SOL    HW132915   2.128   6.509   5.035
 9356SOL    HW232916   1.987   6.552   5.000
 9357SOL     OW32917   3.405   6.604   3.894
 9357SOL    HW132918   3.336   6.538   3.889
 9357SOL    HW232919   3.410   6.626   3.988
 9358SOL     OW32920   3.084   7.402   5.399
 9358SOL    HW132921   3.084   7.472   5.333
 9358SOL    HW232922   3.099   7.322   5.348
 9359SOL     OW32923   2.166   5.852   5.590
 9359SOL    HW132924   2.202   5.939   5.607
 9359SOL    HW232925   2.072   5.865   5.587
 9360SOL     OW32926   3.348   6.994   4.689
 9360SOL    HW132927   3.281   7.003   4.757
 9360SOL    HW232928   3.316   6.922   4.634
 9361SOL     OW32929   3.479   7.409   4.305
 9361SOL    HW132930   3.464   7.364   4.222
 9361SOL    HW232931   3.457   7.345   4.372
 9362SOL     OW32932   2.456   6.301   4.003
 9362SOL    HW132933   2.456   6.383   3.953
 9362SOL    HW232934   2.383   6.310   4.064
 9363SOL     OW32935   3.153   5.935   4.667
 9363SOL    HW132936   3.064   5.901   4.662
 9363SOL    HW232937   3.203   5.867   4.713
 9364SOL     OW32938   3.450   7.272   4.056
 9364SOL    HW132939   3.543   7.295   4.048
 9364SOL    HW232940   3.423   7.251   3.967
 9365SOL     OW32941   2.645   6.192   5.148
 9365SOL    HW132942   2.623   6.150   5.231
 9365SOL    HW232943   2.604   6.136   5.081
 9366SOL     OW32944   3.255   6.054   5.404
 9366SOL    HW132945   3.263   6.090   5.492
 9366SOL    HW232946   3.294   5.966   5.410
 9367SOL     OW32947   2.840   6.458   5.309
 9367SOL    HW132948   2.871   6.373   5.279
 9367SOL    HW232949   2.789   6.492   5.236
 9368SOL     OW32950   2.936   6.266   4.159
 9368SOL    HW132951   2.943   6.253   4.253
 9368SOL    HW232952   2.848   6.236   4.137
 9369SOL     OW32953   1.964   6.388   4.510
 9369SOL    HW132954   2.011   6.396   4.593
 9369SOL    HW232955   1.901   6.460   4.511
 9370SOL     OW32956   1.958   7.393   5.339
 9370SOL    HW132957   1.979   7.413   5.430
 9370SOL    HW232958   1.910   7.469   5.308
 9371SOL     OW32959   2.704   5.933   3.928
 9371SOL    HW132960   2.735   5.967   3.844
 9371SOL    HW232961   2.635   5.871   3.905
 9372SOL     OW32962   3.575   6.166   5.555
 9372SOL    HW132963   3.529   6.235   5.507
 9372SOL    HW232964   3.577   6.092   5.494
 9373SOL     OW32965   3.238   6.749   4.266
 9373SOL    HW132966   3.312   6.737   4.206
 9373SOL    HW232967   3.179   6.808   4.220
 9374SOL     OW32968   2.474   5.882   4.622
 9374SOL    HW132969   2.391   5.863   4.664
 9374SOL    HW232970   2.451   5.897   4.530
 9375SOL     OW32971   2.846   7.047   4.173
 9375SOL    HW132972   2.818   7.120   4.117
 9375SOL    HW232973   2.792   7.055   4.252
 9376SOL     OW32974   2.239   7.405   4.608
 9376SOL    HW132975   2.307   7.340   4.625
 9376SOL    HW232976   2.282   7.490   4.622
 9377SOL     OW32977   3.543   6.687   4.575
 9377SOL    HW132978   3.461   6.720   4.538
 9377SOL    HW232979   3.527   6.682   4.669
 9378SOL     OW32980   3.093   7.137   5.279
 9378SOL    HW132981   3.062   7.061   5.329
 9378SOL    HW232982   3.014   7.169   5.234
 9379SOL     OW32983   2.166   6.518   4.009
 9379SOL    HW132984   2.192   6.498   3.919
 9379SOL    HW232985   2.095   6.458   4.028
 9380SOL     OW32986   3.406   6.334   4.441
 9380SOL    HW132987   3.375   6.297   4.523
 9380SOL    HW232988   3.337   6.394   4.413
 9381SOL     OW32989   2.392   6.871   5.426
 9381SOL    HW132990   2.353   6.880   5.340
 9381SOL    HW232991   2.318   6.874   5.487
 9382SOL     OW32992   3.020   7.349   4.010
 9382SOL    HW132993   2.927   7.329   4.013
 9382SOL    HW232994   3.055   7.291   3.943
 9383SOL     OW32995   2.046   5.831   5.215
 9383SOL    HW132996   1.964   5.874   5.239
 9383SOL    HW232997   2.037   5.742   5.248
 9384SOL     OW32998   3.517   6.956   3.786
 9384SOL    HW132999   3.481   7.044   3.794
 9384SOL    HW233000   3.442   6.900   3.767
 9385SOL     OW33001   2.529   7.396   4.058
 9385SOL    HW133002   2.487   7.452   4.123
 9385SOL    HW233003   2.522   7.446   3.976
 9386SOL     OW33004   3.274   5.683   4.136
 9386SOL    HW133005   3.237   5.683   4.047
 9386SOL    HW233006   3.336   5.610   4.136
 9387SOL     OW33007   2.117   7.373   4.948
 9387SOL    HW133008   2.118   7.466   4.971
 9387SOL    HW233009   2.074   7.370   4.863
 9388SOL     OW33010   2.841   7.214   4.543
 9388SOL    HW133011   2.797   7.206   4.628
 9388SOL    HW233012   2.781   7.174   4.481
 9389SOL     OW33013   2.280   6.243   4.222
 9389SOL    HW133014   2.295   6.151   4.246
 9389SOL    HW233015   2.186   6.256   4.235
 9390SOL     OW33016   3.358   5.791   5.417
 9390SOL    HW133017   3.374   5.792   5.511
 9390SOL    HW233018   3.288   5.728   5.404
 9391SOL     OW33019   2.517   5.725   3.853
 9391SOL    HW133020   2.513   5.648   3.909
 9391SOL    HW233021   2.444   5.714   3.792
 9392SOL     OW33022   2.625   5.827   5.488
 9392SOL    HW133023   2.713   5.789   5.487
 9392SOL    HW233024   2.578   5.776   5.554
 9393SOL     OW33025   3.203   6.145   5.146
 9393SOL    HW133026   3.227   6.126   5.237
 9393SOL    HW233027   3.121   6.195   5.153
 9394SOL     OW33028   2.776   6.033   4.635
 9394SOL    HW133029   2.767   6.047   4.540
 9394SOL    HW233030   2.821   5.949   4.642
 9395SOL     OW33031   2.423   5.651   4.297
 9395SOL    HW133032   2.378   5.572   4.267
 9395SOL    HW233033   2.398   5.718   4.233
 9396SOL     OW33034   3.290   6.807   3.739
 9396SOL    HW133035   3.314   6.732   3.795
 9396SOL    HW233036   3.208   6.839   3.776
 9397SOL     OW33037   2.210   5.655   3.902
 9397SOL    HW133038   2.241   5.725   3.960
 9397SOL    HW233039   2.193   5.581   3.960
 9398SOL     OW33040   2.807   5.870   4.176
 9398SOL    HW133041   2.772   5.893   4.089
 9398SOL    HW233042   2.902   5.876   4.166
 9399SOL     OW33043   2.913   6.208   5.199
 9399SOL    HW133044   2.820   6.200   5.175
 9399SOL    HW233045   2.929   6.135   5.257
 9400SOL     OW33046   3.116   7.245   4.530
 9400SOL    HW133047   3.118   7.291   4.446
 9400SOL    HW233048   3.024   7.221   4.542
 9401SOL     OW33049   2.336   6.738   4.438
 9401SOL    HW133050   2.287   6.704   4.513
 9401SOL    HW233051   2.276   6.733   4.365
 9402SOL     OW33052   3.083   7.379   4.283
 9402SOL    HW133053   3.050   7.382   4.193
 9402SOL    HW233054   3.020   7.430   4.333
 9403SOL     OW33055   2.875   6.086   3.744
 9403SOL    HW133056   2.833   6.171   3.728
 9403SOL    HW233057   2.926   6.099   3.824
 9404SOL     OW33058   1.993   6.146   5.129
 9404SOL    HW133059   2.036   6.090   5.194
 9404SOL    HW233060   1.973   6.227   5.177
 9405SOL     OW33061   2.415   5.795   4.907
 9405SOL    HW133062   2.448   5.706   4.899
 9405SOL    HW233063   2.323   5.785   4.933
 9406SOL     OW33064   2.744   6.073   4.366
 9406SOL    HW133065   2.682   6.136   4.328
 9406SOL    HW233066   2.752   6.005   4.299
 9407SOL     OW33067   2.892   5.601   4.454
 9407SOL    HW133068   2.823   5.611   4.388
 9407SOL    HW233069   2.866   5.522   4.503
 9408SOL     OW33070   3.272   6.777   4.536
 9408SOL    HW133071   3.182   6.786   4.566
 9408SOL    HW233072   3.266   6.769   4.441
 9409SOL     OW33073   3.323   6.182   4.663
 9409SOL    HW133074   3.259   6.111   4.673
 9409SOL    HW233075   3.363   6.192   4.749
 9410SOL     OW33076   3.727   6.363   4.092
 9410SOL    HW133077   3.783   6.311   4.150
 9410SOL    HW233078   3.687   6.299   4.033
 9411SOL     OW33079   2.344   7.057   3.856
 9411SOL    HW133080   2.285   7.007   3.912
 9411SOL    HW233081   2.289   7.086   3.783
 9412SOL     OW33082   3.557   6.885   4.341
 9412SOL    HW133083   3.642   6.915   4.373
 9412SOL    HW233084   3.496   6.955   4.366
 9413SOL     OW33085   3.251   6.157   3.799
 9413SOL    HW133086   3.178   6.132   3.855
 9413SOL    HW233087   3.325   6.105   3.832
 9414SOL     OW33088   2.369   5.829   4.078
 9414SOL    HW133089   2.430   5.786   4.018
 9414SOL    HW233090   2.347   5.911   4.035
 9415SOL     OW33091   3.617   6.823   5.267
 9415SOL    HW133092   3.706   6.793   5.249
 9415SOL    HW233093   3.629   6.912   5.302
 9416SOL     OW33094   2.926   6.946   5.052
 9416SOL    HW133095   2.873   6.969   4.975
 9416SOL    HW233096   2.862   6.912   5.115
 9417SOL     OW33097   3.495   7.215   5.402
 9417SOL    HW133098   3.475   7.256   5.317
 9417SOL    HW233099   3.571   7.159   5.384
 9418SOL     OW33100   2.939   6.741   4.818
 9418SOL    HW133101   2.857   6.780   4.849
 9418SOL    HW233102   2.952   6.779   4.732
 9419SOL     OW33103   3.437   6.700   4.826
 9419SOL    HW133104   3.441   6.774   4.886
 9419SOL    HW233105   3.346   6.698   4.797
 9420SOL     OW33106   2.784   5.698   5.107
 9420SOL    HW133107   2.791   5.667   5.016
 9420SOL    HW233108   2.871   5.731   5.128
 9421SOL     OW33109   2.866   6.673   5.481
 9421SOL    HW133110   2.777   6.700   5.501
 9421SOL    HW233111   2.857   6.605   5.415
 9422SOL     OW33112   2.600   6.627   4.101
 9422SOL    HW133113   2.563   6.618   4.189
 9422SOL    HW233114   2.688   6.592   4.108
 9423SOL     OW33115   2.274   6.406   4.981
 9423SOL    HW133116   2.337   6.426   5.051
 9423SOL    HW233117   2.267   6.311   4.983
 9424SOL     OW33118   3.165   5.936   4.975
 9424SOL    HW133119   3.187   6.009   5.031
 9424SOL    HW233120   3.109   5.974   4.907
 9425SOL     OW33121   1.950   7.171   5.035
 9425SOL    HW133122   1.872   7.209   4.994
 9425SOL    HW233123   2.020   7.234   5.019
 9426SOL     OW33124   2.179   6.708   4.209
 9426SOL    HW133125   2.191   6.783   4.151
 9426SOL    HW233126   2.188   6.632   4.152
 9427SOL     OW33127   2.469   6.168   4.534
 9427SOL    HW133128   2.481   6.205   4.446
 9427SOL    HW233129   2.377   6.142   4.536
 9428SOL     OW33130   3.100   6.949   4.127
 9428SOL    HW133131   3.152   7.022   4.160
 9428SOL    HW233132   3.010   6.972   4.148
 9429SOL     OW33133   3.177   6.981   4.907
 9429SOL    HW133134   3.213   7.032   4.980
 9429SOL    HW233135   3.085   6.968   4.930
 9430SOL     OW33136   3.383   6.232   4.174
 9430SOL    HW133137   3.387   6.263   4.264
 9430SOL    HW233138   3.314   6.284   4.133
 9431SOL     OW33139   2.265   6.379   5.362
 9431SOL    HW133140   2.336   6.395   5.299
 9431SOL    HW233141   2.253   6.285   5.360
 9432SOL     OW33142   3.459   6.378   5.417
 9432SOL    HW133143   3.368   6.401   5.397
 9432SOL    HW233144   3.510   6.423   5.349
 9433SOL     OW33145   2.884   5.743   5.478
 9433SOL    HW133146   2.930   5.818   5.438
 9433SOL    HW233147   2.946   5.671   5.472
 9434SOL     OW33148   2.323   5.640   5.492
 9434SOL    HW133149   2.282   5.588   5.423
 9434SOL    HW233150   2.261   5.712   5.507
 9435SOL     OW33151   2.438   6.520   4.780
 9435SOL    HW133152   2.382   6.576   4.727
 9435SOL    HW233153   2.384   6.497   4.856
 9436SOL     OW33154   3.169   6.406   4.736
 9436SOL    HW133155   3.078   6.380   4.722
 9436SOL    HW233156   3.221   6.334   4.700
 9437SOL     OW33157   3.049   6.091   3.973
 9437SOL    HW133158   3.061   6.013   4.028
 9437SOL    HW233159   3.005   6.154   4.030
 9438SOL     OW33160   2.148   5.749   4.959
 9438SOL    HW133161   2.098   5.778   5.035
 9438SOL    HW233162   2.121   5.658   4.945
 9439SOL     OW33163   1.957   6.896   4.992
 9439SOL    HW133164   1.966   6.864   5.081
 9439SOL    HW233165   1.953   6.991   5.001
 9440SOL     OW33166   2.606   6.314   4.719
 9440SOL    HW133167   2.567   6.301   4.633
 9440SOL    HW233168   2.557   6.388   4.756
 9441SOL     OW33169   3.609   6.547   5.593
 9441SOL    HW133170   3.559   6.482   5.544
 9441SOL    HW233171   3.551   6.573   5.665
 9442SOL     OW33172   3.452   5.988   4.076
 9442SOL    HW133173   3.411   5.928   4.138
 9442SOL    HW233174   3.426   6.075   4.107
 9443SOL     OW33175   2.924   6.280   4.691
 9443SOL    HW133176   2.896   6.320   4.773
 9443SOL    HW233177   2.860   6.211   4.674
 9444SOL     OW33178   2.834   7.213   5.469
 9444SOL    HW133179   2.850   7.248   5.381
 9444SOL    HW233180   2.780   7.135   5.454
 9445SOL     OW33181   3.721   7.073   5.320
 9445SOL    HW133182   3.737   7.111   5.234
 9445SOL    HW233183   3.797   7.098   5.372
 9446SOL     OW33184   2.234   6.519   5.601
 9446SOL    HW133185   2.323   6.528   5.635
 9446SOL    HW233186   2.243   6.468   5.521
 9447SOL     OW33187   3.391   5.861   3.835
 9447SOL    HW133188   3.339   5.783   3.859
 9447SOL    HW233189   3.416   5.899   3.919
 9448SOL     OW33190   3.204   6.430   3.788
 9448SOL    HW133191   3.217   6.336   3.787
 9448SOL    HW233192   3.215   6.457   3.697
 9449SOL     OW33193   3.003   6.837   4.562
 9449SOL    HW133194   2.969   6.777   4.497
 9449SOL    HW233195   2.958   6.920   4.545
 9450SOL     OW33196   2.109   6.386   4.752
 9450SOL    HW133197   2.174   6.400   4.821
 9450SOL    HW233198   2.057   6.312   4.782
 9451SOL     OW33199   2.236   6.085   4.661
 9451SOL    HW133200   2.180   6.009   4.677
 9451SOL    HW233201   2.179   6.160   4.672
 9452SOL     OW33202   2.988   5.993   5.371
 9452SOL    HW133203   2.938   6.023   5.447
 9452SOL    HW233204   3.078   6.020   5.390
 9453SOL     OW33205   3.035   5.796   5.179
 9453SOL    HW133206   3.010   5.869   5.236
 9453SOL    HW233207   3.081   5.837   5.106
 9454SOL     OW33208   1.891   6.892   3.900
 9454SOL    HW133209   1.803   6.913   3.869
 9454SOL    HW233210   1.881   6.809   3.947
 9455SOL     OW33211   1.979   7.347   4.702
 9455SOL    HW133212   1.937   7.285   4.642
 9455SOL    HW233213   2.061   7.371   4.660
 9456SOL     OW33214   2.441   7.215   4.652
 9456SOL    HW133215   2.531   7.211   4.683
 9456SOL    HW233216   2.435   7.145   4.587
 9457SOL     OW33217   2.876   6.381   4.947
 9457SOL    HW133218   2.882   6.327   5.026
 9457SOL    HW233219   2.824   6.456   4.973
 9458SOL     OW33220   2.001   6.158   4.854
 9458SOL    HW133221   1.930   6.105   4.819
 9458SOL    HW233222   1.984   6.162   4.948
 9459SOL     OW33223   2.009   6.131   5.433
 9459SOL    HW133224   1.939   6.071   5.405
 9459SOL    HW233225   1.984   6.216   5.398
 9460SOL     OW33226   3.204   6.500   5.359
 9460SOL    HW133227   3.250   6.584   5.364
 9460SOL    HW233228   3.114   6.524   5.338
 9461SOL     OW33229   2.697   6.174   4.072
 9461SOL    HW133230   2.685   6.093   4.021
 9461SOL    HW233231   2.616   6.223   4.060
 9462SOL     OW33232   3.455   6.212   4.904
 9462SOL    HW133233   3.434   6.166   4.986
 9462SOL    HW233234   3.548   6.191   4.889
 9463SOL     OW33235   2.170   7.154   5.479
 9463SOL    HW133236   2.113   7.216   5.525
 9463SOL    HW233237   2.132   7.068   5.497
 9464SOL     OW33238   2.514   6.045   4.946
 9464SOL    HW133239   2.493   5.952   4.951
 9464SOL    HW233240   2.431   6.089   4.963
 9465SOL     OW33241   2.870   7.273   5.187
 9465SOL    HW133242   2.852   7.240   5.099
 9465SOL    HW233243   2.852   7.367   5.181
 9466SOL     OW33244   2.329   6.059   3.944
 9466SOL    HW133245   2.377   6.141   3.955
 9466SOL    HW233246   2.245   6.085   3.907
 9467SOL     OW33247   2.009   6.764   5.242
 9467SOL    HW133248   2.009   6.726   5.330
 9467SOL    HW233249   2.023   6.689   5.184
 9468SOL     OW33250   3.167   6.623   4.901
 9468SOL    HW133251   3.166   6.546   4.845
 9468SOL    HW233252   3.086   6.669   4.880
 9469SOL     OW33253   3.172   6.385   4.071
 9469SOL    HW133254   3.087   6.347   4.095
 9469SOL    HW233255   3.161   6.414   3.981
 9470SOL     OW33256   3.630   7.321   4.892
 9470SOL    HW133257   3.706   7.324   4.834
 9470SOL    HW233258   3.555   7.332   4.834
 9471SOL     OW33259   3.173   7.338   4.781
 9471SOL    HW133260   3.152   7.304   4.694
 9471SOL    HW233261   3.102   7.307   4.837
 9472SOL     OW33262   2.009   6.800   4.741
 9472SOL    HW133263   1.977   6.831   4.825
 9472SOL    HW233264   1.929   6.775   4.693
 9473SOL     OW33265   2.520   7.284   5.396
 9473SOL    HW133266   2.458   7.342   5.440
 9473SOL    HW233267   2.527   7.320   5.307
 9474SOL     OW33268   3.652   5.692   4.279
 9474SOL    HW133269   3.687   5.723   4.195
 9474SOL    HW233270   3.625   5.601   4.261
 9475SOL     OW33271   3.253   7.166   4.222
 9475SOL    HW133272   3.313   7.200   4.156
 9475SOL    HW233273   3.192   7.238   4.239
 9476SOL     OW33274   2.038   7.362   5.615
 9476SOL    HW133275   1.953   7.386   5.652
 9476SOL    HW233276   2.102   7.408   5.670
 9477SOL     OW33277   3.203   6.479   4.331
 9477SOL    HW133278   3.187   6.457   4.239
 9477SOL    HW233279   3.191   6.574   4.335
 9478SOL     OW33280   2.735   6.833   5.219
 9478SOL    HW133281   2.702   6.898   5.281
 9478SOL    HW233282   2.668   6.827   5.152
 9479SOL     OW33283   2.595   7.161   3.803
 9479SOL    HW133284   2.572   7.219   3.731
 9479SOL    HW233285   2.510   7.128   3.834
 9480SOL     OW33286   3.483   7.313   5.136
 9480SOL    HW133287   3.522   7.318   5.049
 9480SOL    HW233288   3.483   7.404   5.167
 9481SOL     OW33289   2.099   5.866   4.431
 9481SOL    HW133290   2.018   5.911   4.408
 9481SOL    HW233291   2.096   5.857   4.526
 9482SOL     OW33292   3.101   7.193   3.795
 9482SOL    HW133293   3.091   7.100   3.816
 9482SOL    HW233294   3.039   7.207   3.723
 9483SOL     OW33295   2.712   6.585   5.089
 9483SOL    HW133296   2.656   6.626   5.024
 9483SOL    HW233297   2.747   6.659   5.140
 9484SOL     OW33298   2.861   6.543   4.118
 9484SOL    HW133299   2.898   6.573   4.035
 9484SOL    HW233300   2.874   6.448   4.118
 9485SOL     OW33301   3.380   7.200   3.796
 9485SOL    HW133302   3.284   7.207   3.795
 9485SOL    HW233303   3.405   7.217   3.705
 9486SOL     OW33304   2.227   6.945   5.211
 9486SOL    HW133305   2.188   7.022   5.251
 9486SOL    HW233306   2.158   6.879   5.213
 9487SOL     OW33307   3.428   6.847   5.064
 9487SOL    HW133308   3.501   6.850   5.126
 9487SOL    HW233309   3.385   6.932   5.073
 9488SOL     OW33310   2.902   6.654   4.385
 9488SOL    HW133311   2.829   6.626   4.441
 9488SOL    HW233312   2.878   6.623   4.297
 9489SOL     OW33313   2.919   5.785   4.665
 9489SOL    HW133314   2.907   5.732   4.586
 9489SOL    HW233315   2.887   5.729   4.736
 9490SOL     OW33316   2.507   7.134   4.146
 9490SOL    HW133317   2.432   7.091   4.105
 9490SOL    HW233318   2.504   7.224   4.115
 9491SOL     OW33319   3.651   5.944   5.112
 9491SOL    HW133320   3.705   6.023   5.111
 9491SOL    HW233321   3.652   5.913   5.021
 9492SOL     OW33322   2.158   6.933   4.030
 9492SOL    HW133323   2.067   6.936   3.999
 9492SOL    HW233324   2.155   6.978   4.114
 9493SOL     OW33325   2.004   6.651   5.500
 9493SOL    HW133326   1.923   6.619   5.541
 9493SOL    HW233327   2.073   6.596   5.538
 9494SOL     OW33328   2.534   5.776   5.224
 9494SOL    HW133329   2.618   5.763   5.181
 9494SOL    HW233330   2.556   5.798   5.314
 9495SOL     OW33331   1.915   5.889   3.731
 9495SOL    HW133332   1.864   5.846   3.663
 9495SOL    HW233333   1.879   5.977   3.737
 9496SOL     OW33334   1.946   5.708   4.006
 9496SOL    HW133335   1.894   5.781   3.973
 9496SOL    HW233336   2.013   5.694   3.939
 9497SOL     OW33337   3.059   6.924   3.846
 9497SOL    HW133338   2.965   6.925   3.831
 9497SOL    HW233339   3.068   6.916   3.941
 9498SOL     OW33340   2.477   6.417   5.170
 9498SOL    HW133341   2.533   6.493   5.155
 9498SOL    HW233342   2.536   6.342   5.161
 9499SOL     OW33343   3.443   7.363   4.701
 9499SOL    HW133344   3.438   7.449   4.659
 9499SOL    HW233345   3.353   7.342   4.725
 9500SOL     OW33346   2.618   6.091   5.398
 9500SOL    HW133347   2.623   6.146   5.476
 9500SOL    HW233348   2.610   6.002   5.431
 9501SOL     OW33349   3.366   6.722   5.347
 9501SOL    HW133350   3.337   6.754   5.433
 9501SOL    HW233351   3.448   6.768   5.331
 9502SOL     OW33352   2.227   7.334   5.277
 9502SOL    HW133353   2.138   7.364   5.258
 9502SOL    HW233354   2.215   7.264   5.342
 9503SOL     OW33355   3.430   6.505   5.019
 9503SOL    HW133356   3.411   6.417   4.986
 9503SOL    HW233357   3.443   6.558   4.941
 9504SOL     OW33358   3.093   5.898   4.169
 9504SOL    HW133359   3.152   5.823   4.168
 9504SOL    HW233360   3.114   5.943   4.251
 9505SOL     OW33361   2.533   6.311   4.313
 9505SOL    HW133362   2.541   6.406   4.326
 9505SOL    HW233363   2.449   6.300   4.268
 9506SOL     OW33364   3.598   5.934   5.390
 9506SOL    HW133365   3.605   5.944   5.295
 9506SOL    HW233366   3.519   5.882   5.402
 9507SOL     OW33367   3.605   6.526   5.234
 9507SOL    HW133368   3.598   6.618   5.258
 9507SOL    HW233369   3.551   6.518   5.154
 9508SOL     OW33370   2.794   6.983   3.778
 9508SOL    HW133371   2.773   6.926   3.852
 9508SOL    HW233372   2.726   7.051   3.780
 9509SOL     OW33373   2.712   6.605   4.596
 9509SOL    HW133374   2.713   6.526   4.651
 9509SOL    HW233375   2.696   6.677   4.657
 9510SOL     OW33376   2.978   6.589   3.868
 9510SOL    HW133377   2.929   6.631   3.797
 9510SOL    HW233378   3.042   6.533   3.823
 9511SOL     OW33379   3.693   7.147   4.512
 9511SOL    HW133380   3.607   7.163   4.472
 9511SOL    HW233381   3.674   7.100   4.593
 9512SOL     OW33382   2.144   6.885   5.554
 9512SOL    HW133383   2.088   6.809   5.534
 9512SOL    HW233384   2.133   6.899   5.648
 9513SOL     OW33385   1.989   6.822   4.399
 9513SOL    HW133386   1.941   6.763   4.457
 9513SOL    HW233387   2.035   6.764   4.339
 9514SOL     OW33388   2.616   7.026   5.377
 9514SOL    HW133389   2.539   6.974   5.398
 9514SOL    HW233390   2.582   7.115   5.368
 9515SOL     OW33391   3.640   5.799   4.863
 9515SOL    HW133392   3.604   5.723   4.910
 9515SOL    HW233393   3.585   5.807   4.785
 9516SOL     OW33394   2.321   5.980   4.314
 9516SOL    HW133395   2.335   5.928   4.235
 9516SOL    HW233396   2.242   5.943   4.353
 9517SOL     OW33397   3.614   7.013   4.738
 9517SOL    HW133398   3.522   7.002   4.715
 9517SOL    HW233399   3.612   7.052   4.826
 9518SOL     OW33400   2.260   6.135   4.984
 9518SOL    HW133401   2.260   6.071   5.056
 9518SOL    HW233402   2.179   6.117   4.936
 9519SOL     OW33403   2.656   7.092   4.371
 9519SOL    HW133404   2.608   7.116   4.292
 9519SOL    HW233405   2.590   7.055   4.429
 9520SOL     OW33406   3.294   5.741   4.813
 9520SOL    HW133407   3.264   5.651   4.827
 9520SOL    HW233408   3.260   5.789   4.889
 9521SOL     OW33409   2.815   5.585   4.850
 9521SOL    HW133410   2.733   5.601   4.804
 9521SOL    HW233411   2.819   5.490   4.861
 9522SOL     OW33412   2.731   6.851   4.001
 9522SOL    HW133413   2.673   6.784   4.038
 9522SOL    HW233414   2.755   6.905   4.076
 9523SOL     OW33415   3.239   5.631   3.865
 9523SOL    HW133416   3.280   5.555   3.825
 9523SOL    HW233417   3.152   5.601   3.890
 9524SOL     OW33418   3.175   6.025   4.403
 9524SOL    HW133419   3.130   6.109   4.400
 9524SOL    HW233420   3.157   5.990   4.491
 9525SOL     OW33421   3.488   5.796   4.620
 9525SOL    HW133422   3.412   5.782   4.676
 9525SOL    HW233423   3.469   5.878   4.574
 9526SOL     OW33424   1.903   6.652   4.044
 9526SOL    HW133425   1.998   6.659   4.054
 9526SOL    HW233426   1.886   6.558   4.042
 9527SOL     OW33427   2.761   7.257   4.007
 9527SOL    HW133428   2.717   7.217   3.933
 9527SOL    HW233429   2.695   7.315   4.046
 9528SOL     OW33430   2.068   6.156   5.704
 9528SOL    HW133431   1.983   6.153   5.747
 9528SOL    HW233432   2.049   6.153   5.611
 9529SOL     OW33433   2.147   5.836   6.584
 9529SOL    HW133434   2.134   5.819   6.677
 9529SOL    HW233435   2.078   5.899   6.562
 9530SOL     OW33436   2.467   6.926   6.794
 9530SOL    HW133437   2.382   6.917   6.751
 9530SOL    HW233438   2.478   7.020   6.807
 9531SOL     OW33439   3.426   7.101   6.291
 9531SOL    HW133440   3.371   7.077   6.366
 9531SOL    HW233441   3.364   7.116   6.220
 9532SOL     OW33442   3.019   6.274   6.276
 9532SOL    HW133443   3.065   6.355   6.253
 9532SOL    HW233444   2.965   6.297   6.351
 9533SOL     OW33445   3.660   6.178   5.813
 9533SOL    HW133446   3.631   6.185   5.722
 9533SOL    HW233447   3.606   6.108   5.850
 9534SOL     OW33448   2.632   6.753   6.650
 9534SOL    HW133449   2.565   6.790   6.708
 9534SOL    HW233450   2.662   6.827   6.598
 9535SOL     OW33451   2.713   6.406   7.432
 9535SOL    HW133452   2.635   6.443   7.474
 9535SOL    HW233453   2.709   6.437   7.342
 9536SOL     OW33454   2.579   6.555   6.249
 9536SOL    HW133455   2.640   6.570   6.320
 9536SOL    HW233456   2.505   6.614   6.267
 9537SOL     OW33457   2.573   6.765   7.407
 9537SOL    HW133458   2.615   6.848   7.430
 9537SOL    HW233459   2.490   6.791   7.367
 9538SOL     OW33460   2.229   6.976   6.658
 9538SOL    HW133461   2.159   6.921   6.624
 9538SOL    HW233462   2.255   7.032   6.585
 9539SOL     OW33463   3.257   7.095   6.945
 9539SOL    HW133464   3.326   7.161   6.942
 9539SOL    HW233465   3.188   7.135   6.999
 9540SOL     OW33466   2.317   5.881   7.123
 9540SOL    HW133467   2.300   5.897   7.215
 9540SOL    HW233468   2.230   5.869   7.084
 9541SOL     OW33469   3.434   6.022   6.313
 9541SOL    HW133470   3.346   6.002   6.282
 9541SOL    HW233471   3.440   6.117   6.312
 9542SOL     OW33472   2.117   7.256   6.075
 9542SOL    HW133473   2.137   7.341   6.113
 9542SOL    HW233474   2.037   7.270   6.025
 9543SOL     OW33475   3.020   6.880   7.315
 9543SOL    HW133476   3.021   6.947   7.383
 9543SOL    HW233477   2.951   6.819   7.342
 9544SOL     OW33478   2.122   6.981   6.088
 9544SOL    HW133479   2.127   7.076   6.093
 9544SOL    HW233480   2.063   6.955   6.159
 9545SOL     OW33481   2.238   6.659   6.528
 9545SOL    HW133482   2.204   6.570   6.515
 9545SOL    HW233483   2.163   6.708   6.564
 9546SOL     OW33484   2.480   7.377   7.035
 9546SOL    HW133485   2.389   7.366   7.063
 9546SOL    HW233486   2.500   7.469   7.054
 9547SOL     OW33487   2.492   6.552   5.722
 9547SOL    HW133488   2.530   6.616   5.662
 9547SOL    HW233489   2.515   6.584   5.809
 9548SOL     OW33490   3.457   5.727   7.008
 9548SOL    HW133491   3.385   5.763   6.957
 9548SOL    HW233492   3.435   5.746   7.099
 9549SOL     OW33493   3.729   7.360   5.893
 9549SOL    HW133494   3.800   7.344   5.955
 9549SOL    HW233495   3.723   7.455   5.886
 9550SOL     OW33496   1.857   7.059   5.793
 9550SOL    HW133497   1.768   7.057   5.759
 9550SOL    HW233498   1.863   7.141   5.842
 9551SOL     OW33499   3.573   6.513   6.222
 9551SOL    HW133500   3.618   6.462   6.155
 9551SOL    HW233501   3.535   6.587   6.175
 9552SOL     OW33502   3.521   6.717   6.033
 9552SOL    HW133503   3.600   6.698   5.982
 9552SOL    HW233504   3.546   6.789   6.090
 9553SOL     OW33505   1.975   6.366   7.124
 9553SOL    HW133506   2.013   6.430   7.184
 9553SOL    HW233507   1.894   6.405   7.094
 9554SOL     OW33508   2.496   6.979   6.326
 9554SOL    HW133509   2.453   6.893   6.321
 9554SOL    HW233510   2.491   7.013   6.237
 9555SOL     OW33511   2.693   5.593   6.131
 9555SOL    HW133512   2.737   5.668   6.091
 9555SOL    HW233513   2.601   5.616   6.130
 9556SOL     OW33514   2.054   6.556   6.871
 9556SOL    HW133515   2.131   6.499   6.867
 9556SOL    HW233516   2.014   6.548   6.784
 9557SOL     OW33517   3.406   6.597   5.799
 9557SOL    HW133518   3.346   6.528   5.828
 9557SOL    HW233519   3.432   6.641   5.880
 9558SOL     OW33520   3.083   7.429   7.143
 9558SOL    HW133521   3.084   7.508   7.089
 9558SOL    HW233522   3.064   7.461   7.231
 9559SOL     OW33523   2.236   5.884   7.401
 9559SOL    HW133524   2.265   5.952   7.463
 9559SOL    HW233525   2.143   5.873   7.420
 9560SOL     OW33526   3.323   6.976   6.523
 9560SOL    HW133527   3.251   7.023   6.566
 9560SOL    HW233528   3.286   6.891   6.500
 9561SOL     OW33529   3.530   7.363   6.162
 9561SOL    HW133530   3.500   7.338   6.075
 9561SOL    HW233531   3.480   7.306   6.222
 9562SOL     OW33532   2.465   6.301   5.860
 9562SOL    HW133533   2.463   6.386   5.816
 9562SOL    HW233534   2.413   6.313   5.939
 9563SOL     OW33535   3.156   5.985   6.537
 9563SOL    HW133536   3.065   5.957   6.529
 9563SOL    HW233537   3.195   5.923   6.599
 9564SOL     OW33538   3.460   7.274   5.905
 9564SOL    HW133539   3.549   7.304   5.889
 9564SOL    HW233540   3.425   7.255   5.817
 9565SOL     OW33541   2.648   6.190   7.081
 9565SOL    HW133542   2.619   6.161   7.168
 9565SOL    HW233543   2.598   6.135   7.020
 9566SOL     OW33544   3.273   6.044   7.195
 9566SOL    HW133545   3.181   6.047   7.223
 9566SOL    HW233546   3.306   5.961   7.229
 9567SOL     OW33547   2.787   6.489   7.162
 9567SOL    HW133548   2.835   6.412   7.133
 9567SOL    HW233549   2.743   6.521   7.084
 9568SOL     OW33550   2.873   6.034   6.776
 9568SOL    HW133551   2.785   6.024   6.812
 9568SOL    HW233552   2.860   6.057   6.684
 9569SOL     OW33553   2.935   6.280   6.004
 9569SOL    HW133554   2.945   6.267   6.098
 9569SOL    HW233555   2.850   6.242   5.983
 9570SOL     OW33556   1.954   6.510   6.266
 9570SOL    HW133557   2.008   6.435   6.241
 9570SOL    HW233558   1.974   6.525   6.359
 9571SOL     OW33559   1.977   7.438   7.159
 9571SOL    HW133560   1.991   7.417   7.252
 9571SOL    HW233561   1.921   7.516   7.162
 9572SOL     OW33562   2.700   5.915   5.785
 9572SOL    HW133563   2.740   5.937   5.701
 9572SOL    HW233564   2.627   5.857   5.762
 9573SOL     OW33565   3.593   6.155   7.406
 9573SOL    HW133566   3.529   6.204   7.355
 9573SOL    HW233567   3.587   6.066   7.373
 9574SOL     OW33568   3.253   6.746   6.151
 9574SOL    HW133569   3.330   6.751   6.096
 9574SOL    HW233570   3.191   6.807   6.111
 9575SOL     OW33571   2.426   5.833   6.563
 9575SOL    HW133572   2.331   5.839   6.558
 9575SOL    HW233573   2.457   5.918   6.533
 9576SOL     OW33574   2.859   7.068   6.027
 9576SOL    HW133575   2.827   7.131   5.963
 9576SOL    HW233576   2.827   7.102   6.111
 9577SOL     OW33577   2.212   7.397   6.463
 9577SOL    HW133578   2.256   7.312   6.467
 9577SOL    HW233579   2.277   7.459   6.497
 9578SOL     OW33580   3.672   6.576   6.477
 9578SOL    HW133581   3.631   6.564   6.391
 9578SOL    HW233582   3.602   6.609   6.533
 9579SOL     OW33583   3.058   7.162   7.125
 9579SOL    HW133584   2.977   7.153   7.175
 9579SOL    HW233585   3.078   7.255   7.128
 9580SOL     OW33586   2.136   6.571   5.859
 9580SOL    HW133587   2.170   6.561   5.770
 9580SOL    HW233588   2.108   6.484   5.885
 9581SOL     OW33589   3.398   6.300   6.274
 9581SOL    HW133590   3.353   6.296   6.358
 9581SOL    HW233591   3.457   6.376   6.282
 9582SOL     OW33592   2.337   6.867   7.307
 9582SOL    HW133593   2.302   6.873   7.218
 9582SOL    HW233594   2.259   6.873   7.363
 9583SOL     OW33595   2.046   5.835   7.111
 9583SOL    HW133596   1.966   5.882   7.136
 9583SOL    HW233597   2.023   5.742   7.117
 9584SOL     OW33598   3.516   6.961   5.678
 9584SOL    HW133599   3.471   7.046   5.675
 9584SOL    HW233600   3.449   6.898   5.652
 9585SOL     OW33601   2.461   7.299   5.912
 9585SOL    HW133602   2.439   7.376   5.966
 9585SOL    HW233603   2.385   7.288   5.854
 9586SOL     OW33604   3.269   5.694   6.039
 9586SOL    HW133605   3.256   5.665   5.949
 9586SOL    HW233606   3.357   5.730   6.040
 9587SOL     OW33607   2.090   7.388   6.807
 9587SOL    HW133608   2.131   7.304   6.826
 9587SOL    HW233609   2.048   7.375   6.721
 9588SOL     OW33610   2.792   7.285   6.483
 9588SOL    HW133611   2.821   7.219   6.545
 9588SOL    HW233612   2.768   7.236   6.404
 9589SOL     OW33613   2.315   6.285   6.092
 9589SOL    HW133614   2.326   6.190   6.096
 9589SOL    HW233615   2.234   6.302   6.141
 9590SOL     OW33616   3.382   5.792   7.278
 9590SOL    HW133617   3.382   5.803   7.373
 9590SOL    HW233618   3.310   5.731   7.262
 9591SOL     OW33619   2.486   5.693   5.703
 9591SOL    HW133620   2.468   5.618   5.758
 9591SOL    HW233621   2.429   5.683   5.628
 9592SOL     OW33622   2.582   5.807   7.247
 9592SOL    HW133623   2.664   5.777   7.287
 9592SOL    HW233624   2.514   5.752   7.285
 9593SOL     OW33625   2.855   7.119   6.704
 9593SOL    HW133626   2.788   7.065   6.661
 9593SOL    HW233627   2.812   7.150   6.784
 9594SOL     OW33628   3.298   6.171   6.955
 9594SOL    HW133629   3.291   6.128   7.040
 9594SOL    HW233630   3.267   6.261   6.971
 9595SOL     OW33631   2.702   6.982   6.515
 9595SOL    HW133632   2.784   6.965   6.468
 9595SOL    HW233633   2.635   6.987   6.446
 9596SOL     OW33634   2.842   6.069   6.499
 9596SOL    HW133635   2.795   6.083   6.416
 9596SOL    HW233636   2.860   5.975   6.501
 9597SOL     OW33637   2.437   5.678   6.123
 9597SOL    HW133638   2.350   5.664   6.159
 9597SOL    HW233639   2.424   5.739   6.051
 9598SOL     OW33640   3.300   6.785   5.614
 9598SOL    HW133641   3.321   6.715   5.677
 9598SOL    HW233642   3.216   6.819   5.643
 9599SOL     OW33643   2.127   5.650   5.772
 9599SOL    HW133644   2.155   5.722   5.715
 9599SOL    HW233645   2.208   5.603   5.792
 9600SOL     OW33646   2.808   5.817   6.024
 9600SOL    HW133647   2.768   5.854   5.945
 9600SOL    HW233648   2.896   5.854   6.026
 9601SOL     OW33649   2.909   6.251   7.060
 9601SOL    HW133650   2.818   6.224   7.068
 9601SOL    HW233651   2.918   6.281   6.970
 9602SOL     OW33652   3.122   7.157   6.379
 9602SOL    HW133653   3.122   7.233   6.322
 9602SOL    HW233654   3.133   7.193   6.467
 9603SOL     OW33655   2.375   6.731   6.302
 9603SOL    HW133656   2.327   6.710   6.382
 9603SOL    HW233657   2.311   6.722   6.232
 9604SOL     OW33658   3.132   7.384   6.208
 9604SOL    HW133659   3.166   7.447   6.144
 9604SOL    HW233660   3.058   7.429   6.249
 9605SOL     OW33661   2.884   6.091   5.603
 9605SOL    HW133662   2.836   6.174   5.598
 9605SOL    HW233663   2.930   6.095   5.687
 9606SOL     OW33664   2.019   6.189   6.903
 9606SOL    HW133665   1.945   6.209   6.846
 9606SOL    HW233666   2.009   6.247   6.978
 9607SOL     OW33667   2.426   5.739   6.826
 9607SOL    HW133668   2.443   5.765   6.735
 9607SOL    HW233669   2.331   5.746   6.836
 9608SOL     OW33670   2.724   6.084   6.253
 9608SOL    HW133671   2.656   6.152   6.251
 9608SOL    HW233672   2.700   6.024   6.182
 9609SOL     OW33673   2.902   5.605   6.328
 9609SOL    HW133674   2.833   5.612   6.261
 9609SOL    HW233675   2.871   5.538   6.388
 9610SOL     OW33676   3.270   6.710   6.445
 9610SOL    HW133677   3.211   6.640   6.473
 9610SOL    HW233678   3.248   6.724   6.353
 9611SOL     OW33679   3.291   6.239   6.522
 9611SOL    HW133680   3.238   6.159   6.527
 9611SOL    HW233681   3.349   6.234   6.598
 9612SOL     OW33682   3.700   6.378   6.007
 9612SOL    HW133683   3.760   6.322   6.057
 9612SOL    HW233684   3.668   6.322   5.937
 9613SOL     OW33685   2.335   7.100   5.705
 9613SOL    HW133686   2.270   7.050   5.755
 9613SOL    HW233687   2.290   7.122   5.623
 9614SOL     OW33688   3.615   6.896   6.219
 9614SOL    HW133689   3.678   6.968   6.214
 9614SOL    HW233690   3.535   6.936   6.251
 9615SOL     OW33691   3.259   6.141   5.664
 9615SOL    HW133692   3.184   6.120   5.720
 9615SOL    HW233693   3.335   6.136   5.721
 9616SOL     OW33694   2.382   5.851   5.911
 9616SOL    HW133695   2.412   5.796   5.839
 9616SOL    HW233696   2.355   5.933   5.869
 9617SOL     OW33697   3.561   6.875   7.122
 9617SOL    HW133698   3.655   6.853   7.129
 9617SOL    HW233699   3.554   6.961   7.163
 9618SOL     OW33700   2.889   6.955   6.979
 9618SOL    HW133701   2.808   6.904   6.985
 9618SOL    HW233702   2.861   7.046   6.975
 9619SOL     OW33703   3.529   7.167   7.203
 9619SOL    HW133704   3.485   7.206   7.127
 9619SOL    HW233705   3.465   7.175   7.274
 9620SOL     OW33706   3.007   6.830   6.718
 9620SOL    HW133707   2.942   6.876   6.771
 9620SOL    HW233708   2.992   6.862   6.629
 9621SOL     OW33709   3.472   6.685   6.642
 9621SOL    HW133710   3.459   6.756   6.705
 9621SOL    HW233711   3.400   6.694   6.579
 9622SOL     OW33712   2.749   5.737   6.971
 9622SOL    HW133713   2.780   5.706   6.886
 9622SOL    HW233714   2.828   5.762   7.018
 9623SOL     OW33715   2.833   6.680   7.356
 9623SOL    HW133716   2.744   6.712   7.373
 9623SOL    HW233717   2.822   6.617   7.284
 9624SOL     OW33718   2.596   6.618   5.974
 9624SOL    HW133719   2.572   6.591   6.062
 9624SOL    HW233720   2.686   6.587   5.964
 9625SOL     OW33721   2.275   6.385   6.853
 9625SOL    HW133722   2.325   6.387   6.935
 9625SOL    HW233723   2.259   6.293   6.837
 9626SOL     OW33724   3.117   5.960   6.875
 9626SOL    HW133725   3.167   6.040   6.891
 9626SOL    HW233726   3.034   5.990   6.839
 9627SOL     OW33727   1.942   7.162   6.977
 9627SOL    HW133728   1.920   7.255   6.967
 9627SOL    HW233729   2.035   7.157   6.957
 9628SOL     OW33730   2.194   6.713   6.097
 9628SOL    HW133731   2.176   6.805   6.076
 9628SOL    HW233732   2.180   6.667   6.014
 9629SOL     OW33733   2.485   6.110   6.497
 9629SOL    HW133734   2.505   6.154   6.415
 9629SOL    HW233735   2.390   6.121   6.507
 9630SOL     OW33736   3.108   6.947   6.005
 9630SOL    HW133737   3.163   7.022   6.027
 9630SOL    HW233738   3.019   6.978   6.019
 9631SOL     OW33739   3.133   7.114   6.674
 9631SOL    HW133740   3.164   7.109   6.765
 9631SOL    HW233741   3.038   7.103   6.680
 9632SOL     OW33742   3.374   6.204   6.011
 9632SOL    HW133743   3.376   6.232   6.103
 9632SOL    HW233744   3.320   6.270   5.968
 9633SOL     OW33745   2.199   7.128   6.880
 9633SOL    HW133746   2.200   7.071   6.803
 9633SOL    HW233747   2.289   7.160   6.888
 9634SOL     OW33748   2.307   6.300   7.293
 9634SOL    HW133749   2.339   6.326   7.207
 9634SOL    HW233750   2.235   6.239   7.275
 9635SOL     OW33751   3.470   6.337   7.233
 9635SOL    HW133752   3.398   6.394   7.260
 9635SOL    HW233753   3.444   6.302   7.148
 9636SOL     OW33754   2.807   5.714   7.372
 9636SOL    HW133755   2.805   5.750   7.461
 9636SOL    HW233756   2.833   5.622   7.384
 9637SOL     OW33757   2.368   5.652   7.343
 9637SOL    HW133758   2.313   5.600   7.285
 9637SOL    HW233759   2.312   5.725   7.371
 9638SOL     OW33760   2.490   6.484   6.711
 9638SOL    HW133761   2.470   6.552   6.647
 9638SOL    HW233762   2.406   6.460   6.749
 9639SOL     OW33763   3.148   6.476   6.551
 9639SOL    HW133764   3.058   6.448   6.541
 9639SOL    HW233765   3.200   6.397   6.537
 9640SOL     OW33766   3.050   6.096   5.834
 9640SOL    HW133767   3.055   6.021   5.893
 9640SOL    HW233768   3.012   6.166   5.887
 9641SOL     OW33769   2.157   5.751   6.848
 9641SOL    HW133770   2.074   5.777   6.888
 9641SOL    HW233771   2.146   5.658   6.827
 9642SOL     OW33772   1.897   6.916   6.848
 9642SOL    HW133773   1.912   6.851   6.917
 9642SOL    HW233774   1.904   7.001   6.893
 9643SOL     OW33775   2.609   6.229   6.712
 9643SOL    HW133776   2.578   6.183   6.633
 9643SOL    HW233777   2.563   6.314   6.708
 9644SOL     OW33778   3.493   6.568   7.427
 9644SOL    HW133779   3.411   6.589   7.382
 9644SOL    HW233780   3.474   6.578   7.520
 9645SOL     OW33781   2.182   5.664   6.226
 9645SOL    HW133782   2.139   5.749   6.235
 9645SOL    HW233783   2.180   5.626   6.314
 9646SOL     OW33784   3.481   5.979   5.906
 9646SOL    HW133785   3.504   5.921   5.979
 9646SOL    HW233786   3.435   6.052   5.947
 9647SOL     OW33787   2.904   6.337   6.548
 9647SOL    HW133788   2.889   6.349   6.642
 9647SOL    HW233789   2.878   6.247   6.531
 9648SOL     OW33790   2.839   7.135   7.289
 9648SOL    HW133791   2.769   7.198   7.274
 9648SOL    HW233792   2.801   7.069   7.346
 9649SOL     OW33793   2.237   6.507   7.465
 9649SOL    HW133794   2.324   6.536   7.492
 9649SOL    HW233795   2.254   6.428   7.412
 9650SOL     OW33796   3.406   5.819   5.686
 9650SOL    HW133797   3.340   5.762   5.726
 9650SOL    HW233798   3.430   5.881   5.755
 9651SOL     OW33799   3.169   6.399   5.617
 9651SOL    HW133800   3.199   6.308   5.618
 9651SOL    HW233801   3.182   6.427   5.526
 9652SOL     OW33802   2.970   6.932   6.452
 9652SOL    HW133803   2.975   6.859   6.390
 9652SOL    HW233804   3.022   7.002   6.413
 9653SOL     OW33805   2.149   6.404   6.477
 9653SOL    HW133806   2.168   6.327   6.530
 9653SOL    HW233807   2.136   6.371   6.389
 9654SOL     OW33808   2.212   6.129   6.518
 9654SOL    HW133809   2.126   6.102   6.548
 9654SOL    HW233810   2.209   6.117   6.423
 9655SOL     OW33811   3.000   6.066   7.246
 9655SOL    HW133812   2.940   6.071   7.320
 9655SOL    HW233813   2.965   6.127   7.182
 9656SOL     OW33814   2.998   5.820   7.085
 9656SOL    HW133815   2.984   5.888   7.151
 9656SOL    HW233816   3.040   5.866   7.012
 9657SOL     OW33817   1.954   7.358   6.559
 9657SOL    HW133818   1.906   7.296   6.504
 9657SOL    HW233819   2.037   7.372   6.513
 9658SOL     OW33820   2.355   7.158   6.486
 9658SOL    HW133821   2.426   7.209   6.526
 9658SOL    HW233822   2.399   7.098   6.426
 9659SOL     OW33823   2.826   6.365   6.815
 9659SOL    HW133824   2.785   6.445   6.848
 9659SOL    HW233825   2.753   6.309   6.789
 9660SOL     OW33826   2.078   6.144   7.253
 9660SOL    HW133827   2.028   6.064   7.238
 9660SOL    HW233828   2.027   6.212   7.207
 9661SOL     OW33829   3.263   6.531   7.246
 9661SOL    HW133830   3.233   6.622   7.250
 9661SOL    HW233831   3.262   6.510   7.152
 9662SOL     OW33832   2.704   6.165   5.917
 9662SOL    HW133833   2.690   6.079   5.878
 9662SOL    HW233834   2.621   6.211   5.902
 9663SOL     OW33835   3.463   6.227   6.740
 9663SOL    HW133836   3.412   6.192   6.813
 9663SOL    HW233837   3.540   6.172   6.736
 9664SOL     OW33838   2.135   7.124   7.287
 9664SOL    HW133839   2.109   7.196   7.345
 9664SOL    HW233840   2.113   7.044   7.336
 9665SOL     OW33841   2.518   6.035   6.894
 9665SOL    HW133842   2.424   6.041   6.882
 9665SOL    HW233843   2.555   6.093   6.827
 9666SOL     OW33844   2.769   7.218   6.949
 9666SOL    HW133845   2.683   7.207   6.989
 9666SOL    HW233846   2.789   7.311   6.957
 9667SOL     OW33847   2.322   6.078   5.769
 9667SOL    HW133848   2.373   6.155   5.793
 9667SOL    HW233849   2.234   6.111   5.753
 9668SOL     OW33850   1.982   6.734   7.065
 9668SOL    HW133851   1.998   6.691   7.150
 9668SOL    HW233852   2.008   6.669   7.000
 9669SOL     OW33853   3.160   6.612   6.794
 9669SOL    HW133854   3.157   6.564   6.711
 9669SOL    HW233855   3.107   6.691   6.778
 9670SOL     OW33856   3.217   6.402   5.893
 9670SOL    HW133857   3.138   6.405   5.946
 9670SOL    HW233858   3.186   6.403   5.803
 9671SOL     OW33859   3.636   7.256   6.755
 9671SOL    HW133860   3.699   7.302   6.699
 9671SOL    HW233861   3.606   7.183   6.701
 9672SOL     OW33862   3.019   7.421   6.743
 9672SOL    HW133863   3.099   7.420   6.691
 9672SOL    HW233864   2.983   7.333   6.733
 9673SOL     OW33865   2.013   6.804   6.616
 9673SOL    HW133866   1.971   6.843   6.693
 9673SOL    HW233867   1.940   6.775   6.561
 9674SOL     OW33868   2.605   7.280   7.264
 9674SOL    HW133869   2.578   7.333   7.339
 9674SOL    HW233870   2.560   7.320   7.189
 9675SOL     OW33871   3.574   5.763   6.067
 9675SOL    HW133872   3.630   5.744   5.991
 9675SOL    HW233873   3.561   5.677   6.109
 9676SOL     OW33874   3.264   7.170   6.077
 9676SOL    HW133875   3.319   7.210   6.009
 9676SOL    HW233876   3.210   7.242   6.110
 9677SOL     OW33877   2.034   7.345   7.414
 9677SOL    HW133878   1.973   7.297   7.469
 9677SOL    HW233879   2.096   7.384   7.475
 9678SOL     OW33880   3.171   6.485   6.198
 9678SOL    HW133881   3.258   6.446   6.193
 9678SOL    HW233882   3.185   6.578   6.182
 9679SOL     OW33883   2.637   6.841   6.994
 9679SOL    HW133884   2.611   6.889   7.072
 9679SOL    HW233885   2.572   6.866   6.928
 9680SOL     OW33886   2.590   7.173   5.641
 9680SOL    HW133887   2.561   7.201   5.554
 9680SOL    HW233888   2.510   7.146   5.686
 9681SOL     OW33889   3.455   7.293   6.965
 9681SOL    HW133890   3.508   7.293   6.886
 9681SOL    HW233891   3.443   7.386   6.987
 9682SOL     OW33892   3.683   5.719   6.597
 9682SOL    HW133893   3.712   5.644   6.546
 9682SOL    HW233894   3.599   5.743   6.559
 9683SOL     OW33895   3.100   7.218   5.641
 9683SOL    HW133896   3.071   7.130   5.665
 9683SOL    HW233897   3.046   7.241   5.565
 9684SOL     OW33898   2.661   6.570   6.925
 9684SOL    HW133899   2.608   6.560   6.846
 9684SOL    HW233900   2.659   6.663   6.943
 9685SOL     OW33901   2.856   6.542   5.944
 9685SOL    HW133902   2.904   6.567   5.865
 9685SOL    HW233903   2.882   6.451   5.959
 9686SOL     OW33904   3.378   7.200   5.650
 9686SOL    HW133905   3.283   7.210   5.642
 9686SOL    HW233906   3.411   7.217   5.562
 9687SOL     OW33907   2.218   6.895   7.063
 9687SOL    HW133908   2.206   6.978   7.016
 9687SOL    HW233909   2.135   6.849   7.052
 9688SOL     OW33910   3.460   6.900   6.850
 9688SOL    HW133911   3.502   6.893   6.935
 9688SOL    HW233912   3.380   6.949   6.867
 9689SOL     OW33913   2.950   6.700   6.305
 9689SOL    HW133914   2.882   6.661   6.360
 9689SOL    HW233915   2.942   6.654   6.221
 9690SOL     OW33916   2.935   5.810   6.519
 9690SOL    HW133917   2.924   5.752   6.444
 9690SOL    HW233918   2.911   5.757   6.595
 9691SOL     OW33919   2.519   7.084   6.073
 9691SOL    HW133920   2.541   7.016   6.008
 9691SOL    HW233921   2.480   7.154   6.022
 9692SOL     OW33922   3.720   5.992   7.040
 9692SOL    HW133923   3.743   6.078   7.005
 9692SOL    HW233924   3.702   5.938   6.963
 9693SOL     OW33925   2.112   6.964   5.814
 9693SOL    HW133926   2.023   6.997   5.801
 9693SOL    HW233927   2.124   6.965   5.909
 9694SOL     OW33928   2.007   6.618   7.327
 9694SOL    HW133929   1.927   6.601   7.376
 9694SOL    HW233930   2.076   6.579   7.380
 9695SOL     OW33931   1.887   5.890   5.617
 9695SOL    HW133932   1.823   5.837   5.571
 9695SOL    HW233933   1.856   5.980   5.608
 9696SOL     OW33934   3.286   6.456   6.980
 9696SOL    HW133935   3.224   6.506   6.927
 9696SOL    HW233936   3.370   6.468   6.935
 9697SOL     OW33937   1.892   5.732   5.886
 9697SOL    HW133938   1.860   5.788   5.815
 9697SOL    HW233939   1.980   5.706   5.857
 9698SOL     OW33940   3.038   6.945   5.711
 9698SOL    HW133941   2.943   6.938   5.707
 9698SOL    HW233942   3.060   6.932   5.803
 9699SOL     OW33943   2.457   6.394   7.061
 9699SOL    HW133944   2.501   6.476   7.040
 9699SOL    HW233945   2.528   6.330   7.071
 9700SOL     OW33946   3.253   7.443   6.596
 9700SOL    HW133947   3.262   7.494   6.515
 9700SOL    HW233948   3.287   7.502   6.664
 9701SOL     OW33949   2.554   6.090   7.312
 9701SOL    HW133950   2.476   6.122   7.357
 9701SOL    HW233951   2.544   5.994   7.312
 9702SOL     OW33952   3.282   6.825   7.188
 9702SOL    HW133953   3.271   6.828   7.283
 9702SOL    HW233954   3.375   6.841   7.174
 9703SOL     OW33955   2.226   7.324   7.122
 9703SOL    HW133956   2.142   7.369   7.113
 9703SOL    HW233957   2.204   7.243   7.168
 9704SOL     OW33958   3.525   6.485   6.830
 9704SOL    HW133959   3.509   6.401   6.788
 9704SOL    HW233960   3.503   6.550   6.762
 9705SOL     OW33961   3.077   5.904   6.033
 9705SOL    HW133962   3.131   5.826   6.036
 9705SOL    HW233963   3.099   5.952   6.114
 9706SOL     OW33964   2.530   6.280   6.272
 9706SOL    HW133965   2.552   6.373   6.266
 9706SOL    HW233966   2.454   6.270   6.214
 9707SOL     OW33967   3.636   5.908   7.288
 9707SOL    HW133968   3.656   5.935   7.199
 9707SOL    HW233969   3.552   5.863   7.281
 9708SOL     OW33970   3.585   6.584   7.084
 9708SOL    HW133971   3.555   6.675   7.079
 9708SOL    HW233972   3.570   6.549   6.997
 9709SOL     OW33973   2.757   6.955   5.686
 9709SOL    HW133974   2.718   6.928   5.770
 9709SOL    HW233975   2.708   7.033   5.661
 9710SOL     OW33976   2.538   7.337   6.592
 9710SOL    HW133977   2.504   7.424   6.575
 9710SOL    HW233978   2.626   7.337   6.554
 9711SOL     OW33979   2.755   6.581   6.464
 9711SOL    HW133980   2.785   6.499   6.504
 9711SOL    HW233981   2.712   6.628   6.535
 9712SOL     OW33982   2.997   6.592   5.713
 9712SOL    HW133983   2.950   6.630   5.639
 9712SOL    HW233984   3.052   6.524   5.674
 9713SOL     OW33985   3.692   7.132   6.387
 9713SOL    HW133986   3.608   7.148   6.343
 9713SOL    HW233987   3.667   7.092   6.470
 9714SOL     OW33988   2.076   6.884   7.427
 9714SOL    HW133989   2.050   6.802   7.385
 9714SOL    HW233990   2.008   6.901   7.492
 9715SOL     OW33991   1.969   6.823   6.268
 9715SOL    HW133992   1.920   6.784   6.340
 9715SOL    HW233993   2.017   6.750   6.229
 9716SOL     OW33994   2.556   7.009   7.196
 9716SOL    HW133995   2.475   6.978   7.238
 9716SOL    HW233996   2.566   7.099   7.228
 9717SOL     OW33997   3.700   5.775   6.869
 9717SOL    HW133998   3.618   5.748   6.909
 9717SOL    HW233999   3.687   5.759   6.775
 9718SOL     OW34000   2.356   6.021   6.144
 9718SOL    HW134001   2.345   5.951   6.080
 9718SOL    HW234002   2.271   6.026   6.190
 9719SOL     OW34003   3.572   7.014   6.621
 9719SOL    HW134004   3.489   7.009   6.574
 9719SOL    HW234005   3.552   6.979   6.708
 9720SOL     OW34006   2.265   6.106   6.804
 9720SOL    HW134007   2.178   6.109   6.844
 9720SOL    HW234008   2.247   6.097   6.710
 9721SOL     OW34009   2.717   7.199   6.230
 9721SOL    HW134010   2.709   7.291   6.204
 9721SOL    HW234011   2.640   7.156   6.192
 9722SOL     OW34012   3.245   5.781   6.709
 9722SOL    HW134013   3.203   5.695   6.708
 9722SOL    HW234014   3.197   5.831   6.774
 9723SOL     OW34015   2.884   5.614   6.715
 9723SOL    HW134016   2.820   5.557   6.674
 9723SOL    HW234017   2.965   5.564   6.716
 9724SOL     OW34018   2.649   6.885   5.926
 9724SOL    HW134019   2.621   6.795   5.945
 9724SOL    HW234020   2.721   6.901   5.987
 9725SOL     OW34021   2.471   7.201   6.827
 9725SOL    HW134022   2.478   7.267   6.896
 9725SOL    HW234023   2.492   7.249   6.746
 9726SOL     OW34024   3.230   5.623   5.772
 9726SOL    HW134025   3.255   5.565   5.700
 9726SOL    HW234026   3.144   5.590   5.800
 9727SOL     OW34027   3.159   6.035   6.264
 9727SOL    HW134028   3.110   6.117   6.255
 9727SOL    HW234029   3.150   6.012   6.357
 9728SOL     OW34030   3.437   5.791   6.499
 9728SOL    HW134031   3.373   5.803   6.570
 9728SOL    HW234032   3.428   5.870   6.446
 9729SOL     OW34033   1.868   6.652   5.884
 9729SOL    HW134034   1.961   6.672   5.871
 9729SOL    HW234035   1.867   6.558   5.903
 9730SOL     OW34036   2.737   7.302   5.884
 9730SOL    HW134037   2.642   7.290   5.892
 9730SOL    HW234038   2.758   7.370   5.948
 9731SOL     OW34039   2.094   6.173   7.533
 9731SOL    HW134040   2.012   6.174   7.581
 9731SOL    HW234041   2.068   6.171   7.441
 9732SOL     OW34042   2.068   5.906   8.454
 9732SOL    HW134043   2.094   5.870   8.539
 9732SOL    HW234044   1.989   5.857   8.430
 9733SOL     OW34045   1.826   6.005   8.091
 9733SOL    HW134046   1.743   6.052   8.094
 9733SOL    HW234047   1.806   5.921   8.050
 9734SOL     OW34048   2.488   6.906   8.659
 9734SOL    HW134049   2.400   6.897   8.623
 9734SOL    HW234050   2.502   7.000   8.666
 9735SOL     OW34051   3.403   7.118   8.134
 9735SOL    HW134052   3.348   7.155   8.204
 9735SOL    HW234053   3.349   7.124   8.056
 9736SOL     OW34054   2.985   6.223   8.157
 9736SOL    HW134055   2.982   6.301   8.212
 9736SOL    HW234056   2.920   6.164   8.195
 9737SOL     OW34057   3.668   6.172   7.668
 9737SOL    HW134058   3.632   6.174   7.580
 9737SOL    HW234059   3.615   6.107   7.714
 9738SOL     OW34060   2.623   6.738   8.484
 9738SOL    HW134061   2.578   6.790   8.551
 9738SOL    HW234062   2.663   6.802   8.426
 9739SOL     OW34063   2.735   6.290   9.282
 9739SOL    HW134064   2.687   6.342   9.347
 9739SOL    HW234065   2.754   6.353   9.212
 9740SOL     OW34066   2.520   6.583   8.098
 9740SOL    HW134067   2.580   6.581   8.172
 9740SOL    HW234068   2.452   6.646   8.124
 9741SOL     OW34069   2.579   6.767   9.270
 9741SOL    HW134070   2.620   6.844   9.309
 9741SOL    HW234071   2.495   6.798   9.238
 9742SOL     OW34072   2.251   6.944   8.526
 9742SOL    HW134073   2.163   6.917   8.499
 9742SOL    HW234074   2.280   7.004   8.458
 9743SOL     OW34075   3.323   7.114   8.833
 9743SOL    HW134076   3.381   7.181   8.868
 9743SOL    HW234077   3.243   7.121   8.885
 9744SOL     OW34078   2.325   5.963   8.911
 9744SOL    HW134079   2.386   5.908   8.960
 9744SOL    HW234080   2.238   5.936   8.944
 9745SOL     OW34081   3.452   6.050   8.253
 9745SOL    HW134082   3.371   6.048   8.202
 9745SOL    HW234083   3.426   6.088   8.337
 9746SOL     OW34084   2.107   7.292   7.924
 9746SOL    HW134085   2.126   7.363   7.985
 9746SOL    HW234086   2.024   7.317   7.884
 9747SOL     OW34087   3.023   6.893   9.116
 9747SOL    HW134088   2.982   6.968   9.159
 9747SOL    HW234089   2.970   6.818   9.143
 9748SOL     OW34090   2.053   7.043   8.037
 9748SOL    HW134091   2.082   7.130   8.008
 9748SOL    HW234092   1.994   7.061   8.110
 9749SOL     OW34093   2.126   6.664   8.324
 9749SOL    HW134094   2.068   6.589   8.331
 9749SOL    HW234095   2.085   6.731   8.379
 9750SOL     OW34096   2.495   7.342   8.913
 9750SOL    HW134097   2.403   7.336   8.938
 9750SOL    HW234098   2.514   7.436   8.917
 9751SOL     OW34099   2.505   6.556   7.575
 9751SOL    HW134100   2.524   6.631   7.518
 9751SOL    HW234101   2.522   6.589   7.663
 9752SOL     OW34102   3.366   5.769   8.894
 9752SOL    HW134103   3.411   5.843   8.853
 9752SOL    HW234104   3.374   5.785   8.988
 9753SOL     OW34105   1.999   6.231   8.025
 9753SOL    HW134106   1.938   6.159   8.042
 9753SOL    HW234107   1.996   6.284   8.105
 9754SOL     OW34108   3.722   7.343   7.806
 9754SOL    HW134109   3.693   7.325   7.895
 9754SOL    HW234110   3.714   7.438   7.796
 9755SOL     OW34111   1.892   7.180   7.572
 9755SOL    HW134112   1.859   7.093   7.595
 9755SOL    HW234113   1.880   7.232   7.651
 9756SOL     OW34114   3.588   6.460   8.036
 9756SOL    HW134115   3.611   6.503   8.118
 9756SOL    HW234116   3.545   6.529   7.985
 9757SOL     OW34117   3.496   6.689   7.900
 9757SOL    HW134118   3.579   6.702   7.853
 9757SOL    HW234119   3.499   6.753   7.971
 9758SOL     OW34120   1.960   6.356   8.949
 9758SOL    HW134121   2.021   6.368   9.022
 9758SOL    HW234122   1.887   6.414   8.969
 9759SOL     OW34123   2.510   6.993   8.139
 9759SOL    HW134124   2.457   6.915   8.154
 9759SOL    HW234125   2.497   7.014   8.047
 9760SOL     OW34126   3.143   6.804   8.892
 9760SOL    HW134127   3.232   6.779   8.917
 9760SOL    HW234128   3.103   6.834   8.973
 9761SOL     OW34129   2.689   5.567   7.980
 9761SOL    HW134130   2.740   5.638   7.940
 9761SOL    HW234131   2.599   5.600   7.980
 9762SOL     OW34132   2.050   6.548   8.771
 9762SOL    HW134133   2.131   6.507   8.740
 9762SOL    HW234134   2.001   6.477   8.812
 9763SOL     OW34135   3.363   6.605   7.670
 9763SOL    HW134136   3.291   6.550   7.702
 9763SOL    HW234137   3.406   6.637   7.749
 9764SOL     OW34138   3.174   7.477   9.057
 9764SOL    HW134139   3.126   7.538   9.003
 9764SOL    HW234140   3.118   7.399   9.062
 9765SOL     OW34141   3.279   7.001   8.410
 9765SOL    HW134142   3.235   7.014   8.495
 9765SOL    HW234143   3.229   7.055   8.349
 9766SOL     OW34144   3.610   7.289   8.055
 9766SOL    HW134145   3.592   7.383   8.062
 9766SOL    HW234146   3.524   7.248   8.067
 9767SOL     OW34147   2.450   6.292   7.710
 9767SOL    HW134148   2.447   6.381   7.673
 9767SOL    HW234149   2.386   6.294   7.781
 9768SOL     OW34150   3.160   5.900   8.371
 9768SOL    HW134151   3.070   5.868   8.365
 9768SOL    HW234152   3.166   5.938   8.458
 9769SOL     OW34153   3.457   7.236   7.729
 9769SOL    HW134154   3.536   7.283   7.757
 9769SOL    HW234155   3.408   7.300   7.678
 9770SOL     OW34156   2.647   6.181   8.866
 9770SOL    HW134157   2.630   6.141   8.951
 9770SOL    HW234158   2.625   6.113   8.802
 9771SOL     OW34159   3.257   6.060   9.131
 9771SOL    HW134160   3.269   6.111   9.211
 9771SOL    HW234161   3.300   5.977   9.149
 9772SOL     OW34162   2.794   6.465   9.056
 9772SOL    HW134163   2.851   6.399   9.017
 9772SOL    HW234164   2.752   6.508   8.982
 9773SOL     OW34165   2.901   6.027   8.702
 9773SOL    HW134166   2.899   6.122   8.715
 9773SOL    HW234167   2.811   6.004   8.678
 9774SOL     OW34168   2.886   6.258   7.902
 9774SOL    HW134169   2.924   6.259   7.990
 9774SOL    HW234170   2.804   6.211   7.912
 9775SOL     OW34171   2.005   6.383   8.250
 9775SOL    HW134172   2.056   6.355   8.326
 9775SOL    HW234173   1.932   6.432   8.287
 9776SOL     OW34174   1.981   7.412   8.968
 9776SOL    HW134175   1.958   7.431   9.059
 9776SOL    HW234176   1.933   7.477   8.917
 9777SOL     OW34177   2.731   5.842   7.623
 9777SOL    HW134178   2.701   5.932   7.636
 9777SOL    HW234179   2.651   5.791   7.612
 9778SOL     OW34180   3.574   6.252   9.217
 9778SOL    HW134181   3.588   6.237   9.310
 9778SOL    HW234182   3.579   6.165   9.177
 9779SOL     OW34183   3.193   6.710   7.972
 9779SOL    HW134184   3.287   6.719   7.960
 9779SOL    HW234185   3.156   6.788   7.931
 9780SOL     OW34186   2.395   5.719   8.404
 9780SOL    HW134187   2.405   5.752   8.494
 9780SOL    HW234188   2.366   5.795   8.354
 9781SOL     OW34189   2.843   7.054   7.919
 9781SOL    HW134190   2.824   7.125   7.858
 9781SOL    HW234191   2.806   7.082   8.002
 9782SOL     OW34192   2.159   7.426   8.387
 9782SOL    HW134193   2.161   7.382   8.472
 9782SOL    HW234194   2.155   7.519   8.409
 9783SOL     OW34195   3.624   6.604   8.290
 9783SOL    HW134196   3.669   6.681   8.257
 9783SOL    HW234197   3.580   6.634   8.370
 9784SOL     OW34198   3.072   7.131   8.948
 9784SOL    HW134199   3.059   7.058   9.009
 9784SOL    HW234200   2.988   7.176   8.945
 9785SOL     OW34201   2.159   6.522   7.732
 9785SOL    HW134202   2.182   6.514   7.639
 9785SOL    HW234203   2.100   6.449   7.748
 9786SOL     OW34204   3.391   6.345   8.253
 9786SOL    HW134205   3.355   6.296   8.326
 9786SOL    HW234206   3.354   6.433   8.263
 9787SOL     OW34207   2.338   6.885   9.196
 9787SOL    HW134208   2.315   6.890   9.103
 9787SOL    HW234209   2.255   6.875   9.241
 9788SOL     OW34210   2.989   7.333   7.625
 9788SOL    HW134211   2.915   7.311   7.682
 9788SOL    HW234212   2.973   7.424   7.599
 9789SOL     OW34213   2.070   5.873   8.976
 9789SOL    HW134214   2.011   5.946   8.960
 9789SOL    HW234215   2.074   5.865   9.072
 9790SOL     OW34216   3.479   6.959   7.474
 9790SOL    HW134217   3.442   7.047   7.469
 9790SOL    HW234218   3.402   6.902   7.478
 9791SOL     OW34219   2.443   7.317   7.785
 9791SOL    HW134220   2.419   7.380   7.853
 9791SOL    HW234221   2.435   7.367   7.703
 9792SOL     OW34222   3.272   5.685   7.911
 9792SOL    HW134223   3.275   5.662   7.818
 9792SOL    HW234224   3.353   5.650   7.947
 9793SOL     OW34225   2.107   7.332   8.644
 9793SOL    HW134226   2.143   7.260   8.696
 9793SOL    HW234227   2.013   7.313   8.639
 9794SOL     OW34228   2.798   7.314   8.352
 9794SOL    HW134229   2.889   7.292   8.370
 9794SOL    HW234230   2.778   7.269   8.269
 9795SOL     OW34231   2.268   6.247   7.928
 9795SOL    HW134232   2.280   6.154   7.947
 9795SOL    HW234233   2.176   6.264   7.951
 9796SOL     OW34234   3.369   5.796   9.175
 9796SOL    HW134235   3.382   5.820   9.267
 9796SOL    HW234236   3.327   5.710   9.178
 9797SOL     OW34237   2.506   5.686   7.583
 9797SOL    HW134238   2.477   5.611   7.634
 9797SOL    HW234239   2.461   5.676   7.499
 9798SOL     OW34240   2.621   5.796   9.156
 9798SOL    HW134241   2.696   5.739   9.173
 9798SOL    HW234242   2.547   5.751   9.195
 9799SOL     OW34243   2.754   7.050   8.569
 9799SOL    HW134244   2.688   7.099   8.618
 9799SOL    HW234245   2.807   7.008   8.637
 9800SOL     OW34246   3.282   6.123   8.848
 9800SOL    HW134247   3.274   6.112   8.943
 9800SOL    HW234248   3.280   6.217   8.835
 9801SOL     OW34249   2.725   6.944   8.318
 9801SOL    HW134250   2.723   6.999   8.397
 9801SOL    HW234251   2.652   6.975   8.265
 9802SOL     OW34252   2.806   6.078   8.305
 9802SOL    HW134253   2.710   6.082   8.302
 9802SOL    HW234254   2.825   5.988   8.334
 9803SOL     OW34255   2.444   5.684   7.963
 9803SOL    HW134256   2.366   5.674   8.017
 9803SOL    HW234257   2.417   5.742   7.891
 9804SOL     OW34258   3.266   6.778   7.471
 9804SOL    HW134259   3.296   6.723   7.543
 9804SOL    HW234260   3.181   6.811   7.500
 9805SOL     OW34261   2.165   5.641   7.608
 9805SOL    HW134262   2.166   5.719   7.664
 9805SOL    HW234263   2.233   5.584   7.645
 9806SOL     OW34264   2.842   5.768   7.871
 9806SOL    HW134265   2.812   5.795   7.784
 9806SOL    HW234266   2.922   5.819   7.885
 9807SOL     OW34267   2.905   6.240   8.939
 9807SOL    HW134268   2.814   6.210   8.930
 9807SOL    HW234269   2.945   6.177   9.000
 9808SOL     OW34270   3.126   7.168   8.242
 9808SOL    HW134271   3.124   7.229   8.168
 9808SOL    HW234272   3.108   7.222   8.318
 9809SOL     OW34273   2.324   6.778   8.165
 9809SOL    HW134274   2.272   6.732   8.231
 9809SOL    HW234275   2.262   6.838   8.124
 9810SOL     OW34276   3.135   7.373   8.056
 9810SOL    HW134277   3.194   7.431   8.007
 9810SOL    HW234278   3.063   7.430   8.084
 9811SOL     OW34279   2.859   6.193   7.511
 9811SOL    HW134280   2.804   6.260   7.471
 9811SOL    HW234281   2.799   6.141   7.565
 9812SOL     OW34282   1.985   6.120   8.812
 9812SOL    HW134283   2.077   6.126   8.788
 9812SOL    HW234284   1.969   6.199   8.865
 9813SOL     OW34285   2.418   5.826   8.658
 9813SOL    HW134286   2.458   5.801   8.741
 9813SOL    HW234287   2.324   5.825   8.675
 9814SOL     OW34288   2.660   6.115   7.969
 9814SOL    HW134289   2.602   6.182   8.005
 9814SOL    HW234290   2.630   6.033   8.009
 9815SOL     OW34291   2.881   5.601   8.184
 9815SOL    HW134292   2.813   5.596   8.117
 9815SOL    HW234293   2.857   5.534   8.248
 9816SOL     OW34294   3.297   6.768   8.264
 9816SOL    HW134295   3.293   6.834   8.333
 9816SOL    HW234296   3.377   6.788   8.216
 9817SOL     OW34297   3.328   6.179   8.467
 9817SOL    HW134298   3.268   6.123   8.517
 9817SOL    HW234299   3.393   6.208   8.530
 9818SOL     OW34300   3.739   6.413   7.792
 9818SOL    HW134301   3.700   6.414   7.880
 9818SOL    HW234302   3.711   6.329   7.755
 9819SOL     OW34303   2.318   6.971   7.667
 9819SOL    HW134304   2.238   6.947   7.716
 9819SOL    HW234305   2.286   6.994   7.580
 9820SOL     OW34306   3.510   6.862   8.111
 9820SOL    HW134307   3.604   6.861   8.131
 9820SOL    HW234308   3.485   6.954   8.120
 9821SOL     OW34309   2.351   5.845   7.751
 9821SOL    HW134310   2.404   5.794   7.690
 9821SOL    HW234311   2.336   5.929   7.707
 9822SOL     OW34312   3.587   6.854   8.962
 9822SOL    HW134313   3.668   6.807   8.982
 9822SOL    HW234314   3.605   6.945   8.986
 9823SOL     OW34315   2.924   6.895   8.745
 9823SOL    HW134316   2.846   6.886   8.799
 9823SOL    HW234317   2.996   6.861   8.799
 9824SOL     OW34318   3.510   7.291   8.951
 9824SOL    HW134319   3.476   7.329   9.032
 9824SOL    HW234320   3.574   7.226   8.980
 9825SOL     OW34321   3.034   6.780   8.510
 9825SOL    HW134322   2.989   6.810   8.589
 9825SOL    HW234323   3.012   6.844   8.443
 9826SOL     OW34324   3.494   6.684   8.540
 9826SOL    HW134325   3.500   6.768   8.586
 9826SOL    HW234326   3.404   6.656   8.553
 9827SOL     OW34327   2.802   5.645   8.829
 9827SOL    HW134328   2.819   5.641   8.735
 9827SOL    HW234329   2.864   5.709   8.862
 9828SOL     OW34330   2.836   6.703   9.184
 9828SOL    HW134331   2.747   6.732   9.204
 9828SOL    HW234332   2.825   6.620   9.138
 9829SOL     OW34333   2.589   6.641   7.829
 9829SOL    HW134334   2.541   6.633   7.911
 9829SOL    HW234335   2.674   6.601   7.848
 9830SOL     OW34336   2.271   6.396   8.710
 9830SOL    HW134337   2.336   6.412   8.778
 9830SOL    HW234338   2.256   6.301   8.713
 9831SOL     OW34339   3.165   6.020   8.622
 9831SOL    HW134340   3.208   6.047   8.702
 9831SOL    HW234341   3.071   6.021   8.642
 9832SOL     OW34342   1.922   7.185   8.825
 9832SOL    HW134343   1.861   7.217   8.759
 9832SOL    HW234344   1.949   7.263   8.873
 9833SOL     OW34345   2.531   6.127   8.294
 9833SOL    HW134346   2.509   6.185   8.221
 9833SOL    HW234347   2.447   6.096   8.327
 9834SOL     OW34348   3.094   6.946   7.875
 9834SOL    HW134349   3.152   7.021   7.884
 9834SOL    HW234350   3.007   6.980   7.895
 9835SOL     OW34351   3.132   7.070   8.635
 9835SOL    HW134352   3.194   7.087   8.705
 9835SOL    HW234353   3.059   7.026   8.678
 9836SOL     OW34354   3.410   6.188   7.978
 9836SOL    HW134355   3.328   6.156   8.016
 9836SOL    HW234356   3.387   6.271   7.936
 9837SOL     OW34357   2.248   7.109   8.749
 9837SOL    HW134358   2.228   7.049   8.677
 9837SOL    HW234359   2.337   7.139   8.731
 9838SOL     OW34360   2.204   6.338   9.105
 9838SOL    HW134361   2.277   6.314   9.048
 9838SOL    HW234362   2.166   6.254   9.132
 9839SOL     OW34363   2.916   5.708   9.175
 9839SOL    HW134364   2.938   5.799   9.155
 9839SOL    HW234365   2.888   5.709   9.266
 9840SOL     OW34366   2.376   5.645   9.135
 9840SOL    HW134367   2.315   5.595   9.080
 9840SOL    HW234368   2.324   5.673   9.210
 9841SOL     OW34369   2.448   6.491   8.512
 9841SOL    HW134370   2.470   6.584   8.506
 9841SOL    HW234371   2.385   6.486   8.584
 9842SOL     OW34372   3.150   6.408   8.415
 9842SOL    HW134373   3.055   6.397   8.414
 9842SOL    HW234374   3.183   6.330   8.458
 9843SOL     OW34375   3.080   6.129   7.763
 9843SOL    HW134376   3.095   6.039   7.792
 9843SOL    HW234377   3.011   6.162   7.820
 9844SOL     OW34378   2.146   5.796   8.700
 9844SOL    HW134379   2.107   5.815   8.786
 9844SOL    HW234380   2.130   5.703   8.686
 9845SOL     OW34381   1.982   6.936   8.724
 9845SOL    HW134382   1.984   6.879   8.801
 9845SOL    HW234383   1.965   7.023   8.759
 9846SOL     OW34384   2.595   6.259   8.528
 9846SOL    HW134385   2.574   6.220   8.443
 9846SOL    HW234386   2.545   6.340   8.531
 9847SOL     OW34387   3.594   6.579   9.329
 9847SOL    HW134388   3.625   6.668   9.347
 9847SOL    HW234389   3.549   6.553   9.410
 9848SOL     OW34390   2.197   5.668   8.088
 9848SOL    HW134391   2.144   5.747   8.103
 9848SOL    HW234392   2.187   5.618   8.168
 9849SOL     OW34393   3.494   5.990   7.788
 9849SOL    HW134394   3.527   5.917   7.841
 9849SOL    HW234395   3.456   6.050   7.851
 9850SOL     OW34396   2.883   6.332   8.403
 9850SOL    HW134397   2.870   6.336   8.498
 9850SOL    HW234398   2.844   6.248   8.378
 9851SOL     OW34399   2.876   7.101   9.203
 9851SOL    HW134400   2.839   7.163   9.140
 9851SOL    HW234401   2.800   7.065   9.249
 9852SOL     OW34402   3.707   7.100   8.991
 9852SOL    HW134403   3.756   7.121   8.911
 9852SOL    HW234404   3.771   7.104   9.061
 9853SOL     OW34405   2.232   6.535   9.295
 9853SOL    HW134406   2.324   6.537   9.320
 9853SOL    HW234407   2.226   6.465   9.230
 9854SOL     OW34408   3.399   5.841   7.551
 9854SOL    HW134409   3.345   5.773   7.592
 9854SOL    HW234410   3.424   5.899   7.622
 9855SOL     OW34411   3.122   6.343   7.400
 9855SOL    HW134412   3.079   6.295   7.329
 9855SOL    HW234413   3.166   6.416   7.356
 9856SOL     OW34414   2.991   6.920   8.259
 9856SOL    HW134415   2.897   6.931   8.272
 9856SOL    HW234416   3.024   7.008   8.246
 9857SOL     OW34417   2.204   6.337   8.440
 9857SOL    HW134418   2.270   6.401   8.413
 9857SOL    HW234419   2.188   6.358   8.532
 9858SOL     OW34420   2.286   6.074   8.418
 9858SOL    HW134421   2.209   6.017   8.419
 9858SOL    HW234422   2.251   6.163   8.417
 9859SOL     OW34423   2.994   5.973   9.111
 9859SOL    HW134424   2.944   6.003   9.186
 9859SOL    HW234425   3.081   6.011   9.124
 9860SOL     OW34426   3.007   5.836   8.871
 9860SOL    HW134427   3.000   5.879   8.956
 9860SOL    HW234428   2.971   5.900   8.810
 9861SOL     OW34429   1.861   6.894   7.615
 9861SOL    HW134430   1.773   6.924   7.594
 9861SOL    HW234431   1.849   6.809   7.656
 9862SOL     OW34432   1.896   7.361   8.325
 9862SOL    HW134433   1.890   7.273   8.288
 9862SOL    HW234434   1.990   7.376   8.335
 9863SOL     OW34435   2.365   7.113   8.348
 9863SOL    HW134436   2.401   7.200   8.366
 9863SOL    HW234437   2.407   7.086   8.266
 9864SOL     OW34438   2.848   6.310   8.672
 9864SOL    HW134439   2.871   6.323   8.764
 9864SOL    HW234440   2.753   6.301   8.671
 9865SOL     OW34441   1.898   6.118   8.549
 9865SOL    HW134442   1.953   6.055   8.503
 9865SOL    HW234443   1.934   6.121   8.638
 9866SOL     OW34444   2.078   6.105   9.170
 9866SOL    HW134445   2.106   6.079   9.258
 9866SOL    HW234446   1.985   6.081   9.166
 9867SOL     OW34447   3.282   6.474   9.079
 9867SOL    HW134448   3.281   6.570   9.079
 9867SOL    HW234449   3.217   6.449   9.144
 9868SOL     OW34450   2.663   6.109   7.692
 9868SOL    HW134451   2.665   6.098   7.787
 9868SOL    HW234452   2.593   6.172   7.677
 9869SOL     OW34453   3.528   6.229   8.644
 9869SOL    HW134454   3.507   6.186   8.727
 9869SOL    HW234455   3.609   6.188   8.615
 9870SOL     OW34456   2.115   7.131   9.164
 9870SOL    HW134457   2.085   7.209   9.211
 9870SOL    HW234458   2.107   7.060   9.228
 9871SOL     OW34459   2.631   6.009   8.646
 9871SOL    HW134460   2.555   5.951   8.638
 9871SOL    HW234461   2.605   6.088   8.600
 9872SOL     OW34462   2.815   7.255   8.956
 9872SOL    HW134463   2.725   7.228   8.936
 9872SOL    HW234464   2.819   7.347   8.931
 9873SOL     OW34465   2.334   6.071   7.590
 9873SOL    HW134466   2.384   6.143   7.628
 9873SOL    HW234467   2.247   6.108   7.574
 9874SOL     OW34468   2.006   6.758   8.936
 9874SOL    HW134469   2.006   6.718   9.022
 9874SOL    HW234470   2.021   6.686   8.875
 9875SOL     OW34471   3.237   6.601   8.594
 9875SOL    HW134472   3.205   6.538   8.530
 9875SOL    HW234473   3.174   6.672   8.591
 9876SOL     OW34474   3.132   6.469   7.755
 9876SOL    HW134475   3.120   6.496   7.846
 9876SOL    HW234476   3.073   6.525   7.705
 9877SOL     OW34477   3.617   7.328   8.622
 9877SOL    HW134478   3.680   7.349   8.554
 9877SOL    HW234479   3.618   7.232   8.627
 9878SOL     OW34480   3.084   7.296   8.481
 9878SOL    HW134481   3.171   7.335   8.476
 9878SOL    HW234482   3.093   7.225   8.543
 9879SOL     OW34483   1.991   6.859   8.466
 9879SOL    HW134484   1.988   6.876   8.560
 9879SOL    HW234485   1.903   6.879   8.434
 9880SOL     OW34486   2.521   7.287   9.187
 9880SOL    HW134487   2.460   7.354   9.218
 9880SOL    HW234488   2.533   7.306   9.094
 9881SOL     OW34489   3.615   5.785   7.934
 9881SOL    HW134490   3.673   5.759   7.862
 9881SOL    HW234491   3.580   5.703   7.967
 9882SOL     OW34492   3.257   7.164   7.908
 9882SOL    HW134493   3.320   7.192   7.842
 9882SOL    HW234494   3.212   7.244   7.934
 9883SOL     OW34495   2.027   7.370   9.271
 9883SOL    HW134496   1.956   7.317   9.309
 9883SOL    HW234497   2.060   7.421   9.345
 9884SOL     OW34498   2.670   6.875   8.870
 9884SOL    HW134499   2.643   6.925   8.947
 9884SOL    HW234500   2.597   6.884   8.809
 9885SOL     OW34501   2.563   7.178   7.568
 9885SOL    HW134502   2.550   7.271   7.549
 9885SOL    HW234503   2.490   7.155   7.625
 9886SOL     OW34504   3.684   5.752   8.397
 9886SOL    HW134505   3.712   5.662   8.378
 9886SOL    HW234506   3.592   5.754   8.371
 9887SOL     OW34507   2.078   5.909   8.161
 9887SOL    HW134508   1.994   5.943   8.130
 9887SOL    HW234509   2.073   5.916   8.257
 9888SOL     OW34510   3.066   7.134   7.450
 9888SOL    HW134511   3.054   7.195   7.523
 9888SOL    HW234512   2.992   7.151   7.392
 9889SOL     OW34513   2.684   6.599   8.838
 9889SOL    HW134514   2.693   6.604   8.743
 9889SOL    HW234515   2.677   6.690   8.867
 9890SOL     OW34516   2.840   6.527   7.852
 9890SOL    HW134517   2.856   6.546   7.760
 9890SOL    HW234518   2.845   6.432   7.858
 9891SOL     OW34519   3.338   7.192   7.405
 9891SOL    HW134520   3.245   7.167   7.410
 9891SOL    HW234521   3.344   7.273   7.455
 9892SOL     OW34522   2.250   6.903   8.941
 9892SOL    HW134523   2.242   6.981   8.886
 9892SOL    HW234524   2.167   6.858   8.931
 9893SOL     OW34525   3.487   6.920   8.710
 9893SOL    HW134526   3.527   6.889   8.791
 9893SOL    HW234527   3.419   6.982   8.738
 9894SOL     OW34528   2.914   6.593   8.114
 9894SOL    HW134529   2.839   6.581   8.171
 9894SOL    HW234530   2.880   6.579   8.025
 9895SOL     OW34531   2.900   5.812   8.366
 9895SOL    HW134532   2.889   5.750   8.294
 9895SOL    HW234533   2.882   5.761   8.445
 9896SOL     OW34534   2.473   7.061   7.878
 9896SOL    HW134535   2.424   7.016   7.809
 9896SOL    HW234536   2.461   7.154   7.859
 9897SOL     OW34537   3.617   5.966   8.851
 9897SOL    HW134538   3.694   6.022   8.845
 9897SOL    HW234539   3.634   5.895   8.788
 9898SOL     OW34540   2.076   6.905   7.803
 9898SOL    HW134541   2.006   6.939   7.748
 9898SOL    HW234542   2.072   6.958   7.883
 9899SOL     OW34543   1.997   6.652   9.193
 9899SOL    HW134544   1.920   6.620   9.239
 9899SOL    HW234545   2.070   6.603   9.232
 9900SOL     OW34546   2.551   5.747   8.890
 9900SOL    HW134547   2.640   5.719   8.867
 9900SOL    HW234548   2.556   5.769   8.983
 9901SOL     OW34549   1.959   5.881   7.495
 9901SOL    HW134550   1.877   5.858   7.452
 9901SOL    HW234551   1.940   5.964   7.538
 9902SOL     OW34552   3.283   6.397   8.806
 9902SOL    HW134553   3.265   6.472   8.750
 9902SOL    HW234554   3.279   6.431   8.895
 9903SOL     OW34555   1.847   5.695   7.693
 9903SOL    HW134556   1.758   5.710   7.661
 9903SOL    HW234557   1.902   5.743   7.632
 9904SOL     OW34558   3.031   6.839   7.627
 9904SOL    HW134559   2.939   6.867   7.628
 9904SOL    HW234560   3.069   6.880   7.704
 9905SOL     OW34561   2.483   6.405   8.878
 9905SOL    HW134562   2.543   6.479   8.880
 9905SOL    HW234563   2.539   6.328   8.879
 9906SOL     OW34564   3.355   7.363   8.440
 9906SOL    HW134565   3.372   7.447   8.398
 9906SOL    HW234566   3.424   7.354   8.505
 9907SOL     OW34567   2.643   6.073   9.109
 9907SOL    HW134568   2.652   6.127   9.188
 9907SOL    HW234569   2.629   5.984   9.143
 9908SOL     OW34570   3.354   6.737   9.102
 9908SOL    HW134571   3.325   6.742   9.193
 9908SOL    HW234572   3.416   6.809   9.093
 9909SOL     OW34573   2.240   7.332   9.016
 9909SOL    HW134574   2.159   7.372   8.985
 9909SOL    HW234575   2.213   7.249   9.056
 9910SOL     OW34576   3.631   6.492   8.686
 9910SOL    HW134577   3.587   6.409   8.669
 9910SOL    HW234578   3.586   6.555   8.629
 9911SOL     OW34579   3.100   5.899   7.918
 9911SOL    HW134580   3.155   5.821   7.913
 9911SOL    HW234581   3.126   5.943   7.998
 9912SOL     OW34582   2.491   6.303   8.079
 9912SOL    HW134583   2.501   6.398   8.087
 9912SOL    HW234584   2.408   6.291   8.033
 9913SOL     OW34585   3.579   5.986   9.125
 9913SOL    HW134586   3.592   5.982   9.030
 9913SOL    HW234587   3.516   5.917   9.143
 9914SOL     OW34588   3.559   6.560   8.949
 9914SOL    HW134589   3.537   6.653   8.944
 9914SOL    HW234590   3.582   6.536   8.859
 9915SOL     OW34591   2.728   6.979   7.493
 9915SOL    HW134592   2.739   6.936   7.578
 9915SOL    HW234593   2.672   7.054   7.511
 9916SOL     OW34594   2.522   7.333   8.396
 9916SOL    HW134595   2.493   7.424   8.399
 9916SOL    HW234596   2.616   7.338   8.379
 9917SOL     OW34597   2.717   6.550   8.301
 9917SOL    HW134598   2.757   6.477   8.347
 9917SOL    HW234599   2.682   6.606   8.370
 9918SOL     OW34600   2.945   6.579   7.594
 9918SOL    HW134601   2.972   6.670   7.605
 9918SOL    HW234602   2.892   6.579   7.515
 9919SOL     OW34603   3.718   7.122   8.249
 9919SOL    HW134604   3.669   7.179   8.190
 9919SOL    HW234605   3.653   7.092   8.314
 9920SOL     OW34606   2.083   6.891   9.308
 9920SOL    HW134607   2.051   6.817   9.256
 9920SOL    HW234608   2.012   6.910   9.369
 9921SOL     OW34609   1.990   6.674   8.070
 9921SOL    HW134610   1.905   6.631   8.082
 9921SOL    HW234611   2.027   6.679   8.158
 9922SOL     OW34612   2.562   7.028   9.082
 9922SOL    HW134613   2.485   6.979   9.110
 9922SOL    HW234614   2.551   7.115   9.121
 9923SOL     OW34615   3.649   5.757   8.673
 9923SOL    HW134616   3.662   5.663   8.676
 9923SOL    HW234617   3.664   5.781   8.582
 9924SOL     OW34618   2.295   5.986   7.998
 9924SOL    HW134619   2.293   5.923   7.926
 9924SOL    HW234620   2.221   5.961   8.054
 9925SOL     OW34621   3.557   7.006   8.454
 9925SOL    HW134622   3.466   7.013   8.424
 9925SOL    HW234623   3.549   6.982   8.546
 9926SOL     OW34624   2.245   6.124   8.708
 9926SOL    HW134625   2.281   6.068   8.776
 9926SOL    HW234626   2.272   6.083   8.626
 9927SOL     OW34627   2.708   7.209   8.113
 9927SOL    HW134628   2.688   7.288   8.063
 9927SOL    HW234629   2.625   7.163   8.120
 9928SOL     OW34630   2.897   5.607   8.564
 9928SOL    HW134631   2.863   5.536   8.508
 9928SOL    HW234632   2.982   5.575   8.594
 9929SOL     OW34633   2.761   6.856   7.736
 9929SOL    HW134634   2.688   6.802   7.766
 9929SOL    HW234635   2.775   6.919   7.807
 9930SOL     OW34636   2.525   7.183   8.687
 9930SOL    HW134637   2.521   7.238   8.766
 9930SOL    HW234638   2.512   7.244   8.615
 9931SOL     OW34639   3.262   5.616   7.643
 9931SOL    HW134640   3.295   5.548   7.585
 9931SOL    HW234641   3.170   5.593   7.656
 9932SOL     OW34642   3.198   6.051   8.140
 9932SOL    HW134643   3.129   6.117   8.141
 9932SOL    HW234644   3.180   5.995   8.216
 9933SOL     OW34645   3.412   5.786   8.338
 9933SOL    HW134646   3.318   5.798   8.350
 9933SOL    HW234647   3.444   5.870   8.306
 9934SOL     OW34648   1.874   6.622   7.700
 9934SOL    HW134649   1.828   6.613   7.617
 9934SOL    HW234650   1.869   6.535   7.740
 9935SOL     OW34651   2.756   7.267   7.769
 9935SOL    HW134652   2.683   7.246   7.710
 9935SOL    HW234653   2.720   7.331   7.830
 9936SOL     OW34654   2.106   6.279   9.549
 9936SOL    HW134655   2.011   6.271   9.544
 9936SOL    HW234656   2.139   6.205   9.498
 9937SOL     OW34657   3.554   6.167   9.487
 9937SOL    HW134658   3.466   6.176   9.452
 9937SOL    HW234659   3.545   6.107   9.561
 9938SOL     OW34660   2.107   7.312   9.770
 9938SOL    HW134661   2.113   7.386   9.831
 9938SOL    HW234662   2.188   7.317   9.719
 9939SOL     OW34663   2.079   7.083   9.920
 9939SOL    HW134664   2.082   7.164   9.869
 9939SOL    HW234665   2.019   7.102   9.993
 9940SOL     OW34666   2.485   6.555   9.422
 9940SOL    HW134667   2.525   6.621   9.365
 9940SOL    HW234668   2.494   6.590   9.510
 9941SOL     OW34669   1.911   6.188   9.884
 9941SOL    HW134670   1.835   6.172   9.827
 9941SOL    HW234671   1.920   6.283   9.887
 9942SOL     OW34672   3.694   7.335   9.580
 9942SOL    HW134673   3.778   7.292   9.593
 9942SOL    HW234674   3.715   7.428   9.577
 9943SOL     OW34675   1.869   7.181   9.387
 9943SOL    HW134676   1.791   7.129   9.369
 9943SOL    HW234677   1.853   7.218   9.474
 9944SOL     OW34678   3.546   6.479   9.833
 9944SOL    HW134679   3.562   6.573   9.822
 9944SOL    HW234680   3.451   6.470   9.828
 9945SOL     OW34681   3.551   6.743   9.720
 9945SOL    HW134682   3.582   6.808   9.783
 9945SOL    HW234683   3.465   6.775   9.693
 9946SOL     OW34684   2.532   6.892   9.944
 9946SOL    HW134685   2.456   6.848   9.982
 9946SOL    HW234686   2.496   6.951   9.879
 9947SOL     OW34687   3.444   6.541   9.552
 9947SOL    HW134688   3.385   6.498   9.614
 9947SOL    HW234689   3.484   6.612   9.602
 9948SOL     OW34690   2.463   6.321   9.585
 9948SOL    HW134691   2.460   6.398   9.530
 9948SOL    HW234692   2.393   6.334   9.649
 9949SOL     OW34693   3.424   7.273   9.604
 9949SOL    HW134694   3.517   7.296   9.606
 9949SOL    HW234695   3.413   7.225   9.521
 9950SOL     OW34696   2.896   6.274   9.717
 9950SOL    HW134697   2.930   6.259   9.806
 9950SOL    HW234698   2.809   6.235   9.718
 9951SOL     OW34699   1.888   6.429   0.069
 9951SOL    HW134700   1.953   6.372   0.109
 9951SOL    HW234701   1.874   6.498   0.133
 9952SOL     OW34702   2.790   5.772   9.417
 9952SOL    HW134703   2.795   5.867   9.401
 9952SOL    HW234704   2.697   5.752   9.408
 9953SOL     OW34705   2.887   7.045   9.782
 9953SOL    HW134706   2.842   7.113   9.731
 9953SOL    HW234707   2.923   7.091   9.857
 9954SOL     OW34708   2.253   7.430   0.221
 9954SOL    HW134709   2.240   7.335   0.223
 9954SOL    HW234710   2.342   7.442   0.188
 9955SOL     OW34711   2.183   6.545   9.566
 9955SOL    HW134712   2.203   6.555   9.473
 9955SOL    HW234713   2.154   6.454   9.575
 9956SOL     OW34714   3.017   7.331   9.527
 9956SOL    HW134715   2.933   7.318   9.571
 9956SOL    HW234716   3.037   7.246   9.487
 9957SOL     OW34717   3.433   6.932   9.402
 9957SOL    HW134718   3.398   7.019   9.383
 9957SOL    HW234719   3.378   6.899   9.473
 9958SOL     OW34720   2.376   7.338   9.668
 9958SOL    HW134721   2.393   7.400   9.739
 9958SOL    HW234722   2.423   7.373   9.593
 9959SOL     OW34723   2.257   6.287   9.779
 9959SOL    HW134724   2.260   6.198   9.814
 9959SOL    HW234725   2.191   6.283   9.709
 9960SOL     OW34726   2.544   5.633   9.402
 9960SOL    HW134727   2.555   5.539   9.418
 9960SOL    HW234728   2.453   5.651   9.424
 9961SOL     OW34729   2.390   5.699   9.880
 9961SOL    HW134730   2.299   5.727   9.889
 9961SOL    HW234731   2.423   5.750   9.807
 9962SOL     OW34732   3.274   6.670   9.361
 9962SOL    HW134733   3.337   6.646   9.429
 9962SOL    HW234734   3.223   6.742   9.399
 9963SOL     OW34735   2.298   6.771   0.061
 9963SOL    HW134736   2.261   6.823   0.132
 9963SOL    HW234737   2.228   6.764   9.996
 9964SOL     OW34738   3.154   7.431   9.913
 9964SOL    HW134739   3.186   7.499   9.853
 9964SOL    HW234740   3.174   7.465  10.000
 9965SOL     OW34741   2.865   6.046   9.343
 9965SOL    HW134742   2.823   6.132   9.333
 9965SOL    HW234743   2.914   6.053   9.425
 9966SOL     OW34744   2.745   6.017   9.942
 9966SOL    HW134745   2.704   6.056   9.865
 9966SOL    HW234746   2.769   5.929   9.915
 9967SOL     OW34747   3.705   6.308   9.687
 9967SOL    HW134748   3.652   6.371   9.735
 9967SOL    HW234749   3.648   6.278   9.616
 9968SOL     OW34750   2.342   7.016   9.473
 9968SOL    HW134751   2.257   6.993   9.510
 9968SOL    HW234752   2.339   6.982   9.384
 9969SOL     OW34753   3.289   6.133   9.401
 9969SOL    HW134754   3.240   6.197   9.455
 9969SOL    HW234755   3.274   6.049   9.445
 9970SOL     OW34756   2.446   5.831   9.652
 9970SOL    HW134757   2.400   5.765   9.599
 9970SOL    HW234758   2.441   5.910   9.598
 9971SOL     OW34759   2.538   6.621   9.684
 9971SOL    HW134760   2.493   6.582   9.759
 9971SOL    HW234761   2.626   6.583   9.687
 9972SOL     OW34762   3.363   6.199   9.821
 9972SOL    HW134763   3.362   6.190   9.916
 9972SOL    HW234764   3.335   6.289   9.805
 9973SOL     OW34765   2.997   6.054   9.583
 9973SOL    HW134766   3.051   6.008   9.648
 9973SOL    HW234767   2.960   6.128   9.631
 9974SOL     OW34768   2.117   5.749   9.916
 9974SOL    HW134769   2.062   5.820   9.949
 9974SOL    HW234770   2.131   5.692   9.992
 9975SOL     OW34771   3.445   5.985   9.668
 9975SOL    HW134772   3.392   5.908   9.689
 9975SOL    HW234773   3.416   6.052   9.729
 9976SOL     OW34774   3.389   5.844   9.438
 9976SOL    HW134775   3.345   5.789   9.504
 9976SOL    HW234776   3.439   5.907   9.490
 9977SOL     OW34777   3.140   6.439   9.315
 9977SOL    HW134778   3.148   6.388   9.396
 9977SOL    HW234779   3.184   6.522   9.335
 9978SOL     OW34780   1.876   6.897   9.496
 9978SOL    HW134781   1.795   6.935   9.462
 9978SOL    HW234782   1.851   6.808   9.523
 9979SOL     OW34783   2.647   6.143   9.699
 9979SOL    HW134784   2.611   6.073   9.645
 9979SOL    HW234785   2.591   6.219   9.681
 9980SOL     OW34786   2.428   6.059   9.504
 9980SOL    HW134787   2.438   6.153   9.520
 9980SOL    HW234788   2.340   6.050   9.465
 9981SOL     OW34789   3.158   6.316   9.563
 9981SOL    HW134790   3.210   6.360   9.630
 9981SOL    HW234791   3.074   6.299   9.606
 9982SOL     OW34792   3.606   5.735   9.842
 9982SOL    HW134793   3.641   5.738   9.753
 9982SOL    HW234794   3.512   5.728   9.831
 9983SOL     OW34795   3.301   7.206   9.847
 9983SOL    HW134796   3.345   7.214   9.762
 9983SOL    HW234797   3.253   7.288   9.857
 9984SOL     OW34798   2.560   7.199   9.449
 9984SOL    HW134799   2.550   7.240   9.363
 9984SOL    HW234800   2.476   7.154   9.464
 9985SOL     OW34801   3.077   7.094   9.400
 9985SOL    HW134802   3.091   7.006   9.435
 9985SOL    HW234803   3.003   7.084   9.341
 9986SOL     OW34804   2.796   6.533   9.655
 9986SOL    HW134805   2.827   6.542   9.564
 9986SOL    HW234806   2.829   6.448   9.683
 9987SOL     OW34807   3.325   7.193   9.353
 9987SOL    HW134808   3.238   7.157   9.368
 9987SOL    HW234809   3.310   7.284   9.325
 9988SOL     OW34810   2.452   7.055   9.728
 9988SOL    HW134811   2.419   7.029   9.642
 9988SOL    HW234812   2.439   7.150   9.731
 9989SOL     OW34813   2.108   6.947   9.632
 9989SOL    HW134814   2.027   6.957   9.583
 9989SOL    HW234815   2.105   7.016   9.698
 9990SOL     OW34816   2.419   6.481   9.889
 9990SOL    HW134817   2.417   6.479   9.985
 9990SOL    HW234818   2.358   6.413   9.862
 9991SOL     OW34819   2.707   6.977   9.394
 9991SOL    HW134820   2.706   6.930   9.478
 9991SOL    HW234821   2.665   7.061   9.413
 9992SOL     OW34822   2.908   6.564   9.410
 9992SOL    HW134823   2.884   6.627   9.342
 9992SOL    HW234824   2.978   6.512   9.371
 9993SOL     OW34825   2.062   6.806   9.901
 9993SOL    HW134826   1.997   6.790   9.970
 9993SOL    HW234827   2.075   6.901   9.902
 9994SOL     OW34828   2.290   6.032   9.877
 9994SOL    HW134829   2.364   5.980   9.844
 9994SOL    HW234830   2.301   6.029   9.972
 9995SOL     OW34831   2.662   6.863   9.638
 9995SOL    HW134832   2.610   6.785   9.657
 9995SOL    HW234833   2.625   6.931   9.695
 9996SOL     OW34834   1.901   6.632   9.576
 9996SOL    HW134835   1.870   6.616   9.487
 9996SOL    HW234836   1.880   6.552   9.624
 9997SOL     OW34837   2.765   7.258   9.641
 9997SOL    HW134838   2.693   7.244   9.579
 9997SOL    HW234839   2.736   7.331   9.696
 9998SOL     OW34840   1.843   7.871   0.717
 9998SOL    HW134841   1.748   7.863   0.706
 9998SOL    HW234842   1.876   7.892   0.630
 9999SOL     OW34843   2.501   8.733   1.217
 9999SOL    HW134844   2.429   8.672   1.232
 9999SOL    HW234845   2.461   8.819   1.222
10000SOL     OW34846   3.440   8.989   0.701
10000SOL    HW134847   3.378   9.013   0.769
10000SOL    HW234848   3.387   8.977   0.622
10001SOL     OW34849   3.019   8.127   0.731
10001SOL    HW134850   3.058   8.207   0.695
10001SOL    HW234851   2.968   8.157   0.806
10002SOL     OW34852   3.563   8.060   0.246
10002SOL    HW134853   3.518   8.077   0.164
10002SOL    HW234854   3.522   7.980   0.279
10003SOL     OW34855   2.591   8.516   1.057
10003SOL    HW134856   2.530   8.465   1.110
10003SOL    HW234857   2.582   8.606   1.089
10004SOL     OW34858   2.725   8.203   1.821
10004SOL    HW134859   2.686   8.271   1.876
10004SOL    HW234860   2.751   8.249   1.741
10005SOL     OW34861   2.564   8.424   0.623
10005SOL    HW134862   2.629   8.428   0.694
10005SOL    HW234863   2.493   8.481   0.652
10006SOL     OW34864   2.596   8.620   1.824
10006SOL    HW134865   2.643   8.699   1.849
10006SOL    HW234866   2.514   8.652   1.786
10007SOL     OW34867   2.182   8.927   1.088
10007SOL    HW134868   2.121   8.862   1.054
10007SOL    HW234869   2.233   8.954   1.011
10008SOL     OW34870   3.320   8.971   1.394
10008SOL    HW134871   3.371   9.051   1.403
10008SOL    HW234872   3.249   8.980   1.458
10009SOL     OW34873   2.314   7.760   1.614
10009SOL    HW134874   2.330   7.854   1.614
10009SOL    HW234875   2.233   7.749   1.564
10010SOL     OW34876   2.097   9.091   0.454
10010SOL    HW134877   2.093   9.161   0.520
10010SOL    HW234878   2.186   9.096   0.420
10011SOL     OW34879   3.012   8.772   1.684
10011SOL    HW134880   2.980   8.828   1.754
10011SOL    HW234881   2.960   8.692   1.692
10012SOL     OW34882   2.080   8.804   0.470
10012SOL    HW134883   2.080   8.899   0.477
10012SOL    HW234884   2.027   8.774   0.544
10013SOL     OW34885   2.115   8.567   0.857
10013SOL    HW134886   2.094   8.479   0.886
10013SOL    HW234887   2.079   8.624   0.924
10014SOL     OW34888   2.488   8.357   0.122
10014SOL    HW134889   2.421   8.419   0.093
10014SOL    HW234890   2.537   8.404   0.189
10015SOL     OW34891   3.518   7.538   1.508
10015SOL    HW134892   3.522   7.616   1.453
10015SOL    HW234893   3.478   7.567   1.590
10016SOL     OW34894   3.709   9.154   0.244
10016SOL    HW134895   3.770   9.127   0.313
10016SOL    HW234896   3.731   9.245   0.228
10017SOL     OW34897   1.948   8.991   0.100
10017SOL    HW134898   1.914   8.910   0.139
10017SOL    HW234899   1.922   9.060   0.160
10018SOL     OW34900   3.529   8.385   0.609
10018SOL    HW134901   3.583   8.332   0.551
10018SOL    HW234902   3.499   8.457   0.554
10019SOL     OW34903   3.505   8.577   0.399
10019SOL    HW134904   3.590   8.554   0.361
10019SOL    HW234905   3.525   8.645   0.463
10020SOL     OW34906   2.480   8.814   0.753
10020SOL    HW134907   2.438   8.727   0.754
10020SOL    HW234908   2.476   8.841   0.661
10021SOL     OW34909   2.671   7.434   0.512
10021SOL    HW134910   2.715   7.514   0.483
10021SOL    HW234911   2.580   7.460   0.525
10022SOL     OW34912   3.363   8.463   0.186
10022SOL    HW134913   3.313   8.401   0.239
10022SOL    HW234914   3.419   8.508   0.249
10023SOL     OW34915   3.103   9.251   1.654
10023SOL    HW134916   3.091   9.319   1.586
10023SOL    HW234917   3.105   9.169   1.605
10024SOL     OW34918   2.215   7.679   1.865
10024SOL    HW134919   2.252   7.729   1.792
10024SOL    HW234920   2.125   7.710   1.872
10025SOL     OW34921   3.277   8.832   0.987
10025SOL    HW134922   3.219   8.856   1.060
10025SOL    HW234923   3.236   8.873   0.910
10026SOL     OW34924   3.566   9.208   0.560
10026SOL    HW134925   3.517   9.188   0.480
10026SOL    HW234926   3.530   9.149   0.626
10027SOL     OW34927   2.453   8.144   0.305
10027SOL    HW134928   2.461   8.217   0.243
10027SOL    HW234929   2.419   8.185   0.385
10028SOL     OW34930   3.439   9.152   0.322
10028SOL    HW134931   3.526   9.147   0.283
10028SOL    HW234932   3.387   9.202   0.258
10029SOL     OW34933   2.658   8.053   1.462
10029SOL    HW134934   2.646   8.139   1.423
10029SOL    HW234935   2.629   7.992   1.395
10030SOL     OW34936   3.233   7.854   1.694
10030SOL    HW134937   3.255   7.925   1.754
10030SOL    HW234938   3.227   7.896   1.608
10031SOL     OW34939   2.803   8.332   1.586
10031SOL    HW134940   2.883   8.318   1.535
10031SOL    HW234941   2.740   8.366   1.523
10032SOL     OW34942   2.845   7.837   1.198
10032SOL    HW134943   2.757   7.839   1.237
10032SOL    HW234944   2.834   7.879   1.113
10033SOL     OW34945   2.918   8.108   0.448
10033SOL    HW134946   2.939   8.109   0.542
10033SOL    HW234947   2.833   8.065   0.442
10034SOL     OW34948   2.021   8.300   0.870
10034SOL    HW134949   2.020   8.284   0.776
10034SOL    HW234950   1.936   8.339   0.889
10035SOL     OW34951   1.992   9.334   1.594
10035SOL    HW134952   2.008   9.301   1.682
10035SOL    HW234953   1.897   9.331   1.585
10036SOL     OW34954   2.671   7.766   0.186
10036SOL    HW134955   2.668   7.821   0.108
10036SOL    HW234956   2.710   7.684   0.156
10037SOL     OW34957   3.562   8.033   1.832
10037SOL    HW134958   3.528   8.110   1.786
10037SOL    HW234959   3.637   8.005   1.781
10038SOL     OW34960   3.236   8.564   0.485
10038SOL    HW134961   3.324   8.581   0.451
10038SOL    HW234962   3.185   8.641   0.460
10039SOL     OW34963   2.350   7.593   0.968
10039SOL    HW134964   2.364   7.607   1.061
10039SOL    HW234965   2.305   7.672   0.938
10040SOL     OW34966   2.845   8.847   0.488
10040SOL    HW134967   2.809   8.934   0.469
10040SOL    HW234968   2.855   8.845   0.583
10041SOL     OW34969   2.183   9.244   0.933
10041SOL    HW134970   2.237   9.170   0.907
10041SOL    HW234971   2.238   9.321   0.917
10042SOL     OW34972   3.623   8.476   0.867
10042SOL    HW134973   3.609   8.479   0.772
10042SOL    HW234974   3.554   8.418   0.899
10043SOL     OW34975   3.086   8.996   1.531
10043SOL    HW134976   3.053   8.916   1.571
10043SOL    HW234977   3.015   9.024   1.472
10044SOL     OW34978   2.172   8.369   0.232
10044SOL    HW134979   2.221   8.429   0.175
10044SOL    HW234980   2.178   8.410   0.319
10045SOL     OW34981   3.360   8.222   0.753
10045SOL    HW134982   3.367   8.245   0.846
10045SOL    HW234983   3.427   8.274   0.710
10046SOL     OW34984   2.337   8.705   1.754
10046SOL    HW134985   2.328   8.707   1.659
10046SOL    HW234986   2.248   8.719   1.786
10047SOL     OW34987   2.076   7.758   1.484
10047SOL    HW134988   2.058   7.720   1.398
10047SOL    HW234989   2.037   7.845   1.481
10048SOL     OW34990   2.366   9.145   0.378
10048SOL    HW134991   2.391   9.215   0.439
10048SOL    HW234992   2.436   9.144   0.313
10049SOL     OW34993   3.272   7.510   0.469
10049SOL    HW134994   3.265   7.566   0.391
10049SOL    HW234995   3.288   7.571   0.541
10050SOL     OW34996   2.111   9.223   1.210
10050SOL    HW134997   2.174   9.167   1.256
10050SOL    HW234998   2.134   9.213   1.117
10051SOL     OW34999   2.750   9.158   0.876
10051SOL    HW135000   2.748   9.076   0.925
10051SOL    HW235001   2.713   9.137   0.790
10052SOL     OW35002   3.440   7.674   1.746
10052SOL    HW135003   3.439   7.673   1.841
10052SOL    HW235004   3.364   7.729   1.723
10053SOL     OW35005   2.502   7.439   0.090
10053SOL    HW135006   2.590   7.476   0.100
10053SOL    HW235007   2.469   7.476   0.008
10054SOL     OW35008   2.652   7.733   1.827
10054SOL    HW135009   2.706   7.702   1.754
10054SOL    HW235010   2.618   7.817   1.798
10055SOL     OW35011   2.748   8.938   1.201
10055SOL    HW135012   2.720   8.918   1.111
10055SOL    HW235013   2.799   8.862   1.227
10056SOL     OW35014   3.188   7.978   1.454
10056SOL    HW135015   3.100   8.015   1.452
10056SOL    HW235016   3.245   8.051   1.428
10057SOL     OW35017   2.700   8.887   0.927
10057SOL    HW135018   2.772   8.860   0.870
10057SOL    HW235019   2.621   8.855   0.882
10058SOL     OW35020   2.777   7.940   0.949
10058SOL    HW135021   2.687   7.950   0.917
10058SOL    HW235022   2.819   7.882   0.886
10059SOL     OW35023   2.422   7.539   0.543
10059SOL    HW135024   2.346   7.509   0.594
10059SOL    HW235025   2.417   7.634   0.548
10060SOL     OW35026   3.315   8.710   0.041
10060SOL    HW135027   3.350   8.628   0.076
10060SOL    HW235028   3.223   8.710   0.068
10061SOL     OW35029   2.765   7.680   0.456
10061SOL    HW135030   2.746   7.724   0.373
10061SOL    HW235031   2.743   7.745   0.523
10062SOL     OW35032   2.939   8.082   1.438
10062SOL    HW135033   2.848   8.061   1.461
10062SOL    HW235034   2.931   8.153   1.374
10063SOL     OW35035   3.142   9.001   0.803
10063SOL    HW135036   3.127   9.059   0.729
10063SOL    HW235037   3.118   9.054   0.880
10064SOL     OW35038   2.340   8.572   0.692
10064SOL    HW135039   2.273   8.572   0.761
10064SOL    HW235040   2.292   8.550   0.612
10065SOL     OW35041   3.092   9.195   0.607
10065SOL    HW135042   3.094   9.236   0.520
10065SOL    HW235043   3.034   9.251   0.659
10066SOL     OW35044   2.876   8.098   0.033
10066SOL    HW135045   2.840   8.174   0.078
10066SOL    HW235046   2.944   8.065   0.091
10067SOL     OW35047   1.959   7.994   1.382
10067SOL    HW135048   1.906   7.924   1.344
10067SOL    HW235049   1.895   8.052   1.423
10068SOL     OW35050   2.327   7.749   1.207
10068SOL    HW135051   2.240   7.720   1.232
10068SOL    HW235052   2.312   7.810   1.134
10069SOL     OW35053   2.674   7.870   0.635
10069SOL    HW135054   2.658   7.930   0.562
10069SOL    HW235055   2.614   7.899   0.703
10070SOL     OW35056   2.895   7.510   0.721
10070SOL    HW135057   2.833   7.533   0.652
10070SOL    HW235058   2.849   7.446   0.775
10071SOL     OW35059   3.672   8.246   0.417
10071SOL    HW135060   3.728   8.194   0.475
10071SOL    HW235061   3.636   8.182   0.355
10072SOL     OW35062   2.304   8.872   0.034
10072SOL    HW135063   2.252   8.841   0.108
10072SOL    HW235064   2.240   8.907   9.972
10073SOL     OW35065   3.579   8.740   0.600
10073SOL    HW135066   3.666   8.720   0.634
10073SOL    HW235067   3.551   8.818   0.647
10074SOL     OW35068   3.259   8.022   0.038
10074SOL    HW135069   3.189   8.045   0.099
10074SOL    HW235070   3.282   7.932   0.061
10075SOL     OW35071   2.395   7.703   0.243
10075SOL    HW135072   2.490   7.708   0.239
10075SOL    HW235073   2.365   7.789   0.212
10076SOL     OW35074   3.605   8.638   1.504
10076SOL    HW135075   3.700   8.644   1.508
10076SOL    HW235076   3.574   8.680   1.584
10077SOL     OW35077   2.929   8.735   1.322
10077SOL    HW135078   2.847   8.727   1.371
10077SOL    HW235079   2.972   8.650   1.334
10078SOL     OW35080   3.480   9.103   1.688
10078SOL    HW135081   3.463   9.138   1.601
10078SOL    HW235082   3.575   9.106   1.697
10079SOL     OW35083   2.854   7.448   1.358
10079SOL    HW135084   2.859   7.476   1.267
10079SOL    HW235085   2.888   7.522   1.408
10080SOL     OW35086   2.857   8.548   1.748
10080SOL    HW135087   2.769   8.584   1.765
10080SOL    HW235088   2.842   8.480   1.682
10081SOL     OW35089   2.613   8.471   0.348
10081SOL    HW135090   2.593   8.456   0.441
10081SOL    HW235091   2.686   8.413   0.330
10082SOL     OW35092   3.089   7.757   1.303
10082SOL    HW135093   3.133   7.835   1.337
10082SOL    HW235094   3.009   7.791   1.262
10083SOL     OW35095   1.958   9.022   1.356
10083SOL    HW135096   1.948   9.104   1.307
10083SOL    HW235097   2.052   9.013   1.369
10084SOL     OW35098   2.164   8.495   0.482
10084SOL    HW135099   2.117   8.579   0.481
10084SOL    HW235100   2.101   8.433   0.518
10085SOL     OW35101   2.514   7.970   0.849
10085SOL    HW135102   2.494   8.043   0.790
10085SOL    HW235103   2.430   7.946   0.888
10086SOL     OW35104   3.104   8.792   0.397
10086SOL    HW135105   3.157   8.866   0.425
10086SOL    HW235106   3.016   8.812   0.431
10087SOL     OW35107   3.125   8.905   1.203
10087SOL    HW135108   3.181   8.928   1.277
10087SOL    HW235109   3.052   8.857   1.242
10088SOL     OW35110   3.332   8.050   0.530
10088SOL    HW135111   3.348   8.101   0.609
10088SOL    HW235112   3.312   8.115   0.463
10089SOL     OW35113   2.236   8.983   1.344
10089SOL    HW135114   2.220   8.957   1.254
10089SOL    HW235115   2.330   9.002   1.347
10090SOL     OW35116   2.311   8.032   1.619
10090SOL    HW135117   2.242   8.098   1.616
10090SOL    HW235118   2.380   8.071   1.673
10091SOL     OW35119   3.473   8.260   1.701
10091SOL    HW135120   3.382   8.287   1.691
10091SOL    HW235121   3.515   8.287   1.620
10092SOL     OW35122   3.014   7.535   1.874
10092SOL    HW135123   2.988   7.623   1.844
10092SOL    HW235124   3.032   7.487   1.793
10093SOL     OW35125   2.326   7.466   1.735
10093SOL    HW135126   2.308   7.485   1.643
10093SOL    HW235127   2.276   7.533   1.783
10094SOL     OW35128   3.055   8.010   0.227
10094SOL    HW135129   3.090   7.930   0.265
10094SOL    HW235130   3.020   8.058   0.302
10095SOL     OW35131   1.874   8.772   1.282
10095SOL    HW135132   1.893   8.722   1.362
10095SOL    HW235133   1.899   8.861   1.303
10096SOL     OW35134   2.523   8.131   1.155
10096SOL    HW135135   2.505   8.123   1.061
10096SOL    HW235136   2.503   8.222   1.175
10097SOL     OW35137   3.613   8.351   1.929
10097SOL    HW135138   3.568   8.328   1.848
10097SOL    HW235139   3.542   8.370   1.991
10098SOL     OW35140   2.150   7.507   0.611
10098SOL    HW135141   2.122   7.594   0.642
10098SOL    HW235142   2.157   7.455   0.691
10099SOL     OW35143   3.431   7.842   0.368
10099SOL    HW135144   3.483   7.781   0.421
10099SOL    HW235145   3.394   7.903   0.432
10100SOL     OW35146   2.877   8.203   0.964
10100SOL    HW135147   2.897   8.233   1.053
10100SOL    HW235148   2.837   8.117   0.976
10101SOL     OW35149   2.851   9.040   1.772
10101SOL    HW135150   2.770   9.090   1.785
10101SOL    HW235151   2.871   9.050   1.679
10102SOL     OW35152   2.299   8.338   1.794
10102SOL    HW135153   2.350   8.419   1.794
10102SOL    HW235154   2.241   8.345   1.719
10103SOL     OW35155   3.303   7.768   0.134
10103SOL    HW135156   3.277   7.676   0.141
10103SOL    HW235157   3.353   7.785   0.214
10104SOL     OW35158   3.234   8.315   9.978
10104SOL    HW135159   3.257   8.222   9.984
10104SOL    HW235160   3.303   8.359   0.027
10105SOL     OW35161   2.914   8.829   0.757
10105SOL    HW135162   2.938   8.736   0.756
10105SOL    HW235163   2.997   8.874   0.775
10106SOL     OW35164   2.276   8.180   0.878
10106SOL    HW135165   2.194   8.229   0.873
10106SOL    HW235166   2.265   8.122   0.953
10107SOL     OW35167   2.975   7.786   1.759
10107SOL    HW135168   2.939   7.867   1.797
10107SOL    HW235169   3.065   7.808   1.737
10108SOL     OW35170   2.993   7.627   1.523
10108SOL    HW135171   2.975   7.693   1.590
10108SOL    HW235172   3.033   7.675   1.451
10109SOL     OW35173   1.852   8.740   0.176
10109SOL    HW135174   1.771   8.773   0.137
10109SOL    HW235175   1.824   8.695   0.256
10110SOL     OW35176   1.914   9.197   0.931
10110SOL    HW135177   1.902   9.113   0.887
10110SOL    HW235178   2.009   9.212   0.927
10111SOL     OW35179   2.346   9.020   0.887
10111SOL    HW135180   2.412   9.084   0.911
10111SOL    HW235181   2.394   8.950   0.842
10112SOL     OW35182   2.879   8.304   1.283
10112SOL    HW135183   2.945   8.370   1.303
10112SOL    HW235184   2.796   8.350   1.293
10113SOL     OW35185   2.056   7.998   1.754
10113SOL    HW135186   2.140   7.968   1.719
10113SOL    HW235187   2.034   8.074   1.701
10114SOL     OW35188   3.212   8.358   1.667
10114SOL    HW135189   3.222   8.449   1.697
10114SOL    HW235190   3.201   8.365   1.572
10115SOL     OW35191   2.672   7.987   0.378
10115SOL    HW135192   2.669   7.922   0.308
10115SOL    HW235193   2.601   8.048   0.358
10116SOL     OW35194   3.530   8.038   1.236
10116SOL    HW135195   3.447   8.082   1.257
10116SOL    HW235196   3.511   7.985   1.159
10117SOL     OW35197   2.106   8.987   1.699
10117SOL    HW135198   2.102   9.070   1.746
10117SOL    HW235199   2.114   8.921   1.768
10118SOL     OW35200   2.565   7.879   1.268
10118SOL    HW135201   2.489   7.826   1.248
10118SOL    HW235202   2.554   7.959   1.217
10119SOL     OW35203   2.901   9.103   1.362
10119SOL    HW135204   2.842   9.052   1.306
10119SOL    HW235205   2.889   9.193   1.332
10120SOL     OW35206   2.300   7.949   0.176
10120SOL    HW135207   2.349   8.022   0.215
10120SOL    HW235208   2.227   7.935   0.236
10121SOL     OW35209   1.974   8.549   1.449
10121SOL    HW135210   2.035   8.497   1.502
10121SOL    HW235211   2.027   8.581   1.377
10122SOL     OW35212   3.199   8.287   0.342
10122SOL    HW135213   3.169   8.316   0.428
10122SOL    HW235214   3.133   8.321   0.281
10123SOL     OW35215   3.654   9.148   1.214
10123SOL    HW135216   3.697   9.213   1.159
10123SOL    HW235217   3.623   9.082   1.152
10124SOL     OW35218   3.109   9.136   1.042
10124SOL    HW135219   3.199   9.169   1.044
10124SOL    HW235220   3.107   9.067   1.108
10125SOL     OW35221   1.976   8.749   1.018
10125SOL    HW135222   1.933   8.749   1.103
10125SOL    HW235223   1.919   8.802   0.962
10126SOL     OW35224   2.764   7.528   0.073
10126SOL    HW135225   2.769   7.507   9.980
10126SOL    HW235226   2.839   7.483   0.112
10127SOL     OW35227   3.567   7.667   0.537
10127SOL    HW135228   3.585   7.577   0.509
10127SOL    HW235229   3.508   7.658   0.612
10128SOL     OW35230   3.263   9.007   0.483
10128SOL    HW135231   3.315   9.054   0.418
10128SOL    HW235232   3.200   9.073   0.515
10129SOL     OW35233   2.057   9.223   1.837
10129SOL    HW135234   2.011   9.164   1.897
10129SOL    HW235235   2.103   9.284   1.895
10130SOL     OW35236   3.144   8.355   0.630
10130SOL    HW135237   3.220   8.323   0.678
10130SOL    HW235238   3.175   8.435   0.588
10131SOL     OW35239   2.675   8.706   1.431
10131SOL    HW135240   2.646   8.763   1.502
10131SOL    HW235241   2.613   8.725   1.360
10132SOL     OW35242   2.554   9.132   0.176
10132SOL    HW135243   2.613   9.190   0.129
10132SOL    HW235244   2.503   9.089   0.107
10133SOL     OW35245   3.474   9.198   1.422
10133SOL    HW135246   3.545   9.190   1.358
10133SOL    HW235247   3.461   9.292   1.432
10134SOL     OW35248   3.686   7.693   0.920
10134SOL    HW135249   3.620   7.653   0.863
10134SOL    HW235250   3.636   7.758   0.971
10135SOL     OW35251   2.098   7.749   0.736
10135SOL    HW135252   2.017   7.800   0.731
10135SOL    HW235253   2.141   7.779   0.816
10136SOL     OW35254   2.992   9.039   0.078
10136SOL    HW135255   2.991   9.075   0.166
10136SOL    HW235256   2.962   9.111   0.022
10137SOL     OW35257   2.647   8.429   1.384
10137SOL    HW135258   2.568   8.420   1.331
10137SOL    HW235259   2.655   8.524   1.399
10138SOL     OW35260   2.817   8.299   0.268
10138SOL    HW135261   2.890   8.346   0.229
10138SOL    HW235262   2.856   8.244   0.335
10139SOL     OW35263   3.269   9.068   0.068
10139SOL    HW135264   3.182   9.041   0.096
10139SOL    HW235265   3.257   9.154   0.028
10140SOL     OW35266   2.298   8.735   1.484
10140SOL    HW135267   2.264   8.814   1.443
10140SOL    HW235268   2.300   8.670   1.413
10141SOL     OW35269   3.478   8.771   1.294
10141SOL    HW135270   3.526   8.730   1.366
10141SOL    HW235271   3.422   8.836   1.336
10142SOL     OW35272   2.961   8.557   0.746
10142SOL    HW135273   2.882   8.516   0.778
10142SOL    HW235274   3.012   8.485   0.709
10143SOL     OW35275   2.979   7.722   0.885
10143SOL    HW135276   2.958   7.653   0.821
10143SOL    HW235277   2.955   7.685   0.969
10144SOL     OW35278   2.476   8.907   0.494
10144SOL    HW135279   2.518   8.862   0.421
10144SOL    HW235280   2.421   8.974   0.453
10145SOL     OW35281   3.545   7.794   1.385
10145SOL    HW135282   3.551   7.888   1.368
10145SOL    HW235283   3.506   7.757   1.305
10146SOL     OW35284   2.137   8.734   0.208
10146SOL    HW135285   2.043   8.735   0.189
10146SOL    HW235286   2.143   8.756   0.301
10147SOL     OW35287   2.033   8.505   1.777
10147SOL    HW135288   1.948   8.464   1.791
10147SOL    HW235289   2.071   8.458   1.703
10148SOL     OW35290   2.543   7.647   1.501
10148SOL    HW135291   2.570   7.711   1.435
10148SOL    HW235292   2.469   7.689   1.545
10149SOL     OW35293   2.016   7.755   9.981
10149SOL    HW135294   1.943   7.816   9.981
10149SOL    HW235295   2.091   7.806   9.951
10150SOL     OW35296   3.325   8.200   1.373
10150SOL    HW135297   3.304   8.211   1.281
10150SOL    HW235298   3.310   8.286   1.412
10151SOL     OW35299   1.988   7.635   0.315
10151SOL    HW135300   1.957   7.654   0.226
10151SOL    HW235301   1.985   7.720   0.360
10152SOL     OW35302   3.059   8.685   0.146
10152SOL    HW135303   2.976   8.727   0.122
10152SOL    HW235304   3.079   8.719   0.234
10153SOL     OW35305   3.375   9.215   1.030
10153SOL    HW135306   3.393   9.292   0.977
10153SOL    HW235307   3.417   9.232   1.114
10154SOL     OW35308   2.600   7.980   1.722
10154SOL    HW135309   2.631   8.058   1.768
10154SOL    HW235310   2.618   7.998   1.630
10155SOL     OW35311   3.250   8.629   1.633
10155SOL    HW135312   3.174   8.687   1.627
10155SOL    HW235313   3.254   8.585   1.548
10156SOL     OW35314   2.242   9.245   1.511
10156SOL    HW135315   2.155   9.279   1.530
10156SOL    HW235316   2.235   9.150   1.525
10157SOL     OW35317   3.636   8.290   1.198
10157SOL    HW135318   3.610   8.201   1.221
10157SOL    HW235319   3.586   8.310   1.119
10158SOL     OW35320   2.454   8.169   0.665
10158SOL    HW135321   2.492   8.254   0.646
10158SOL    HW235322   2.381   8.187   0.724
10159SOL     OW35323   3.677   7.756   1.633
10159SOL    HW135324   3.644   7.784   1.547
10159SOL    HW235325   3.598   7.730   1.681
10160SOL     OW35326   3.606   8.361   1.477
10160SOL    HW135327   3.591   8.456   1.483
10160SOL    HW235328   3.597   8.341   1.384
10161SOL     OW35329   2.820   8.824   0.110
10161SOL    HW135330   2.759   8.813   0.183
10161SOL    HW235331   2.863   8.907   0.128
10162SOL     OW35332   2.491   9.246   0.943
10162SOL    HW135333   2.463   9.331   0.911
10162SOL    HW235334   2.586   9.244   0.927
10163SOL     OW35335   2.738   8.420   0.844
10163SOL    HW135336   2.781   8.345   0.886
10163SOL    HW235337   2.687   8.460   0.915
10164SOL     OW35338   3.036   8.408   0.148
10164SOL    HW135339   3.042   8.504   0.146
10164SOL    HW235340   3.091   8.379   0.075
10165SOL     OW35341   3.686   8.972   0.849
10165SOL    HW135342   3.618   8.990   0.784
10165SOL    HW235343   3.637   8.958   0.931
10166SOL     OW35344   2.088   8.755   1.869
10166SOL    HW135345   2.066   8.669   1.833
10166SOL    HW235346   2.014   8.777   1.925
10167SOL     OW35347   1.941   8.621   0.647
10167SOL    HW135348   1.999   8.608   0.723
10167SOL    HW235349   1.927   8.533   0.612
10168SOL     OW35350   2.575   8.881   1.626
10168SOL    HW135351   2.480   8.869   1.623
10168SOL    HW235352   2.587   8.976   1.625
10169SOL     OW35353   3.704   7.588   1.178
10169SOL    HW135354   3.616   7.623   1.192
10169SOL    HW235355   3.719   7.597   1.083
10170SOL     OW35356   2.284   7.777   0.534
10170SOL    HW135357   2.241   7.840   0.475
10170SOL    HW235358   2.238   7.787   0.617
10171SOL     OW35359   3.538   8.927   1.074
10171SOL    HW135360   3.447   8.927   1.043
10171SOL    HW235361   3.536   8.883   1.158
10172SOL     OW35362   2.642   9.087   0.641
10172SOL    HW135363   2.679   9.102   0.554
10172SOL    HW235364   2.575   9.020   0.627
10173SOL     OW35365   3.242   7.536   1.211
10173SOL    HW135366   3.321   7.590   1.201
10173SOL    HW235367   3.176   7.597   1.244
10174SOL     OW35368   2.896   7.475   1.078
10174SOL    HW135369   2.843   7.421   1.019
10174SOL    HW235370   2.982   7.432   1.080
10175SOL     OW35371   2.648   8.751   0.317
10175SOL    HW135372   2.628   8.658   0.327
10175SOL    HW235373   2.714   8.768   0.384
10176SOL     OW35374   2.508   9.018   1.341
10176SOL    HW135375   2.532   9.063   1.422
10176SOL    HW235376   2.592   9.000   1.298
10177SOL     OW35377   3.212   7.497   0.179
10177SOL    HW135378   3.268   7.435   0.225
10177SOL    HW235379   3.123   7.466   0.195
10178SOL     OW35380   2.733   9.080   0.384
10178SOL    HW135381   2.673   9.094   0.310
10178SOL    HW235382   2.817   9.113   0.354
10179SOL     OW35383   2.053   7.974   2.025
10179SOL    HW135384   1.973   8.012   2.062
10179SOL    HW235385   2.054   8.005   1.934
10180SOL     OW35386   2.081   7.646   2.864
10180SOL    HW135387   2.114   7.653   2.954
10180SOL    HW235388   1.987   7.634   2.875
10181SOL     OW35389   1.834   7.840   2.534
10181SOL    HW135390   1.750   7.864   2.574
10181SOL    HW235391   1.813   7.769   2.475
10182SOL     OW35392   2.458   8.707   3.053
10182SOL    HW135393   2.433   8.704   2.961
10182SOL    HW235394   2.387   8.756   3.095
10183SOL     OW35395   3.401   8.968   2.568
10183SOL    HW135396   3.346   8.954   2.645
10183SOL    HW235397   3.339   8.989   2.498
10184SOL     OW35398   3.051   8.117   2.532
10184SOL    HW135399   3.099   8.192   2.495
10184SOL    HW235400   3.019   8.150   2.616
10185SOL     OW35401   3.677   8.030   2.083
10185SOL    HW135402   3.642   8.036   1.994
10185SOL    HW235403   3.600   8.037   2.140
10186SOL     OW35404   2.678   8.598   2.935
10186SOL    HW135405   2.612   8.631   2.997
10186SOL    HW235406   2.652   8.635   2.851
10187SOL     OW35407   2.745   8.209   3.679
10187SOL    HW135408   2.724   8.267   3.752
10187SOL    HW235409   2.769   8.268   3.608
10188SOL     OW35410   2.587   8.620   3.575
10188SOL    HW135411   2.573   8.707   3.539
10188SOL    HW235412   2.502   8.594   3.611
10189SOL     OW35413   2.170   8.937   2.944
10189SOL    HW135414   2.108   8.886   2.892
10189SOL    HW235415   2.245   8.951   2.886
10190SOL     OW35416   3.339   8.907   3.251
10190SOL    HW135417   3.385   8.991   3.257
10190SOL    HW235418   3.259   8.919   3.302
10191SOL     OW35419   2.313   7.827   3.314
10191SOL    HW135420   2.377   7.758   3.334
10191SOL    HW235421   2.231   7.795   3.349
10192SOL     OW35422   3.442   7.891   2.546
10192SOL    HW135423   3.347   7.876   2.545
10192SOL    HW235424   3.452   7.986   2.543
10193SOL     OW35425   2.096   9.160   2.313
10193SOL    HW135426   2.116   9.232   2.372
10193SOL    HW235427   2.171   9.156   2.254
10194SOL     OW35428   3.070   8.756   3.619
10194SOL    HW135429   3.054   8.800   3.702
10194SOL    HW235430   2.989   8.708   3.601
10195SOL     OW35431   2.042   8.934   2.456
10195SOL    HW135432   2.064   9.009   2.401
10195SOL    HW235433   1.985   8.970   2.524
10196SOL     OW35434   2.099   8.495   2.786
10196SOL    HW135435   2.179   8.537   2.819
10196SOL    HW235436   2.029   8.557   2.805
10197SOL     OW35437   2.611   8.395   1.984
10197SOL    HW135438   2.597   8.471   1.927
10197SOL    HW235439   2.644   8.433   2.066
10198SOL     OW35440   3.424   7.568   3.312
10198SOL    HW135441   3.479   7.641   3.282
10198SOL    HW235442   3.405   7.588   3.403
10199SOL     OW35443   1.976   8.090   2.465
10199SOL    HW135444   1.925   8.011   2.484
10199SOL    HW235445   1.972   8.142   2.545
10200SOL     OW35446   3.729   9.189   2.177
10200SOL    HW135447   3.808   9.170   2.228
10200SOL    HW235448   3.735   9.282   2.157
10201SOL     OW35449   1.941   9.032   1.998
10201SOL    HW135450   1.909   8.944   2.016
10201SOL    HW235451   1.899   9.087   2.063
10202SOL     OW35452   3.610   8.362   2.463
10202SOL    HW135453   3.667   8.330   2.393
10202SOL    HW235454   3.563   8.436   2.424
10203SOL     OW35455   3.490   8.566   2.313
10203SOL    HW135456   3.570   8.586   2.265
10203SOL    HW235457   3.489   8.629   2.386
10204SOL     OW35458   1.929   8.218   3.419
10204SOL    HW135459   1.962   8.280   3.484
10204SOL    HW235460   1.855   8.264   3.378
10205SOL     OW35461   3.099   8.619   3.277
10205SOL    HW135462   3.139   8.554   3.220
10205SOL    HW235463   3.168   8.644   3.337
10206SOL     OW35464   2.669   7.451   2.307
10206SOL    HW135465   2.728   7.526   2.296
10206SOL    HW235466   2.591   7.488   2.348
10207SOL     OW35467   2.002   8.405   3.154
10207SOL    HW135468   2.086   8.371   3.125
10207SOL    HW235469   1.964   8.444   3.075
10208SOL     OW35470   3.432   8.355   2.145
10208SOL    HW135471   3.338   8.355   2.129
10208SOL    HW235472   3.448   8.434   2.196
10209SOL     OW35473   3.196   9.337   3.484
10209SOL    HW135474   3.132   9.398   3.448
10209SOL    HW235475   3.148   9.255   3.493
10210SOL     OW35476   2.211   7.719   3.725
10210SOL    HW135477   2.256   7.799   3.752
10210SOL    HW235478   2.118   7.744   3.723
10211SOL     OW35479   3.286   8.872   2.805
10211SOL    HW135480   3.231   8.900   2.878
10211SOL    HW235481   3.250   8.788   2.778
10212SOL     OW35482   3.566   9.172   2.457
10212SOL    HW135483   3.555   9.159   2.362
10212SOL    HW235484   3.496   9.121   2.496
10213SOL     OW35485   2.480   8.174   2.104
10213SOL    HW135486   2.539   8.235   2.059
10213SOL    HW235487   2.397   8.221   2.110
10214SOL     OW35488   3.177   7.811   2.850
10214SOL    HW135489   3.093   7.770   2.827
10214SOL    HW235490   3.173   7.820   2.945
10215SOL     OW35491   3.467   9.107   2.183
10215SOL    HW135492   3.558   9.132   2.166
10215SOL    HW235493   3.428   9.099   2.096
10216SOL     OW35494   2.687   7.901   3.318
10216SOL    HW135495   2.654   7.935   3.402
10216SOL    HW235496   2.632   7.943   3.252
10217SOL     OW35497   3.245   8.001   3.544
10217SOL    HW135498   3.212   8.077   3.592
10217SOL    HW235499   3.324   7.974   3.591
10218SOL     OW35500   2.836   8.343   3.433
10218SOL    HW135501   2.872   8.259   3.402
10218SOL    HW235502   2.791   8.379   3.357
10219SOL     OW35503   2.875   7.863   3.106
10219SOL    HW135504   2.810   7.867   3.176
10219SOL    HW235505   2.836   7.913   3.035
10220SOL     OW35506   2.916   8.094   2.288
10220SOL    HW135507   2.943   8.097   2.380
10220SOL    HW235508   2.823   8.069   2.292
10221SOL     OW35509   1.967   8.248   2.688
10221SOL    HW135510   2.032   8.308   2.725
10221SOL    HW235511   1.883   8.289   2.708
10222SOL     OW35512   2.009   9.210   3.351
10222SOL    HW135513   2.034   9.207   3.443
10222SOL    HW235514   1.966   9.295   3.340
10223SOL     OW35515   2.764   7.833   2.066
10223SOL    HW135516   2.820   7.900   2.025
10223SOL    HW235517   2.720   7.790   1.992
10224SOL     OW35518   3.217   8.585   2.396
10224SOL    HW135519   3.301   8.590   2.350
10224SOL    HW235520   3.168   8.662   2.366
10225SOL     OW35521   2.871   8.934   2.376
10225SOL    HW135522   2.843   8.999   2.312
10225SOL    HW235523   2.792   8.884   2.397
10226SOL     OW35524   2.229   9.210   2.733
10226SOL    HW135525   2.260   9.119   2.730
10226SOL    HW235526   2.300   9.258   2.776
10227SOL     OW35527   3.683   8.433   2.728
10227SOL    HW135528   3.651   8.433   2.637
10227SOL    HW235529   3.617   8.482   2.776
10228SOL     OW35530   3.106   8.947   3.384
10228SOL    HW135531   3.072   8.908   3.464
10228SOL    HW235532   3.033   9.001   3.351
10229SOL     OW35533   2.239   8.306   2.071
10229SOL    HW135534   2.215   8.397   2.089
10229SOL    HW235535   2.249   8.302   1.976
10230SOL     OW35536   3.423   8.163   2.498
10230SOL    HW135537   3.340   8.209   2.485
10230SOL    HW235538   3.488   8.232   2.505
10231SOL     OW35539   2.304   8.614   3.630
10231SOL    HW135540   2.304   8.626   3.535
10231SOL    HW235541   2.229   8.665   3.661
10232SOL     OW35542   2.975   9.250   2.172
10232SOL    HW135543   2.895   9.198   2.173
10232SOL    HW235544   3.024   9.217   2.096
10233SOL     OW35545   2.047   7.766   3.364
10233SOL    HW135546   2.031   7.852   3.324
10233SOL    HW235547   1.982   7.761   3.434
10234SOL     OW35548   3.467   8.823   1.998
10234SOL    HW135549   3.428   8.907   1.974
10234SOL    HW235550   3.402   8.758   1.972
10235SOL     OW35551   2.331   9.176   2.167
10235SOL    HW135552   2.371   9.245   2.221
10235SOL    HW235553   2.403   9.144   2.112
10236SOL     OW35554   3.325   7.548   2.319
10236SOL    HW135555   3.288   7.520   2.235
10236SOL    HW235556   3.308   7.642   2.322
10237SOL     OW35557   2.156   9.222   3.113
10237SOL    HW135558   2.105   9.208   3.193
10237SOL    HW235559   2.131   9.150   3.055
10238SOL     OW35560   2.800   9.166   2.732
10238SOL    HW135561   2.868   9.099   2.736
10238SOL    HW235562   2.739   9.133   2.666
10239SOL     OW35563   2.214   8.148   2.324
10239SOL    HW135564   2.201   8.196   2.242
10239SOL    HW235565   2.126   8.136   2.359
10240SOL     OW35566   3.388   7.652   3.575
10240SOL    HW135567   3.396   7.666   3.670
10240SOL    HW235568   3.294   7.661   3.559
10241SOL     OW35569   2.513   7.524   1.938
10241SOL    HW135570   2.569   7.592   1.901
10241SOL    HW235571   2.453   7.501   1.866
10242SOL     OW35572   2.615   7.707   3.624
10242SOL    HW135573   2.707   7.683   3.632
10242SOL    HW235574   2.614   7.802   3.619
10243SOL     OW35575   2.742   8.998   3.088
10243SOL    HW135576   2.704   9.002   2.999
10243SOL    HW235577   2.796   8.919   3.087
10244SOL     OW35578   3.284   8.001   3.266
10244SOL    HW135579   3.264   7.996   3.359
10244SOL    HW235580   3.290   8.094   3.247
10245SOL     OW35581   2.839   7.943   2.755
10245SOL    HW135582   2.795   7.938   2.670
10245SOL    HW235583   2.869   7.854   2.772
10246SOL     OW35584   2.413   7.520   2.348
10246SOL    HW135585   2.335   7.520   2.404
10246SOL    HW235586   2.402   7.596   2.291
10247SOL     OW35587   3.270   8.650   1.911
10247SOL    HW135588   3.267   8.649   1.815
10247SOL    HW235589   3.190   8.696   1.937
10248SOL     OW35590   2.207   7.452   2.022
10248SOL    HW135591   2.226   7.542   1.993
10248SOL    HW235592   2.131   7.426   1.970
10249SOL     OW35593   2.823   7.682   2.299
10249SOL    HW135594   2.798   7.732   2.221
10249SOL    HW235595   2.918   7.696   2.306
10250SOL     OW35596   2.911   8.095   3.329
10250SOL    HW135597   2.856   8.017   3.341
10250SOL    HW235598   2.884   8.131   3.245
10251SOL     OW35599   2.994   8.977   2.623
10251SOL    HW135600   2.946   8.964   2.541
10251SOL    HW235601   3.057   9.046   2.604
10252SOL     OW35602   2.914   8.023   1.911
10252SOL    HW135603   2.835   8.071   1.884
10252SOL    HW235604   2.985   8.086   1.899
10253SOL     OW35605   1.992   8.016   3.244
10253SOL    HW135606   2.077   8.045   3.209
10253SOL    HW235607   1.965   8.087   3.303
10254SOL     OW35608   2.406   7.558   3.007
10254SOL    HW135609   2.444   7.646   3.009
10254SOL    HW235610   2.323   7.567   3.054
10255SOL     OW35611   2.745   7.881   2.496
10255SOL    HW135612   2.692   7.940   2.442
10255SOL    HW235613   2.769   7.810   2.437
10256SOL     OW35614   2.920   7.501   2.578
10256SOL    HW135615   2.870   7.538   2.505
10256SOL    HW235616   2.860   7.439   2.620
10257SOL     OW35617   3.282   8.577   2.712
10257SOL    HW135618   3.193   8.608   2.697
10257SOL    HW235619   3.331   8.607   2.635
10258SOL     OW35620   3.351   8.041   2.881
10258SOL    HW135621   3.285   7.979   2.848
10258SOL    HW235622   3.314   8.127   2.864
10259SOL     OW35623   3.730   8.264   2.224
10259SOL    HW135624   3.743   8.181   2.176
10259SOL    HW235625   3.666   8.311   2.171
10260SOL     OW35626   2.389   8.837   2.002
10260SOL    HW135627   2.301   8.841   2.039
10260SOL    HW235628   2.377   8.794   1.917
10261SOL     OW35629   3.494   8.705   2.549
10261SOL    HW135630   3.590   8.703   2.552
10261SOL    HW235631   3.472   8.798   2.553
10262SOL     OW35632   3.293   8.013   1.915
10262SOL    HW135633   3.276   7.981   2.004
10262SOL    HW235634   3.388   8.010   1.907
10263SOL     OW35635   2.416   7.690   2.142
10263SOL    HW135636   2.441   7.663   2.054
10263SOL    HW235637   2.380   7.779   2.131
10264SOL     OW35638   3.641   8.676   3.453
10264SOL    HW135639   3.733   8.668   3.426
10264SOL    HW235640   3.628   8.769   3.467
10265SOL     OW35641   2.906   8.774   3.151
10265SOL    HW135642   2.822   8.761   3.196
10265SOL    HW235643   2.969   8.727   3.205
10266SOL     OW35644   3.483   9.022   3.537
10266SOL    HW135645   3.453   9.077   3.464
10266SOL    HW235646   3.573   8.999   3.513
10267SOL     OW35647   3.020   8.600   2.957
10267SOL    HW135648   2.958   8.654   3.007
10267SOL    HW235649   3.018   8.638   2.869
10268SOL     OW35650   3.489   8.549   2.897
10268SOL    HW135651   3.486   8.624   2.957
10268SOL    HW235652   3.413   8.561   2.840
10269SOL     OW35653   2.911   7.440   3.228
10269SOL    HW135654   2.881   7.467   3.141
10269SOL    HW235655   2.942   7.520   3.269
10270SOL     OW35656   2.859   8.577   3.579
10270SOL    HW135657   2.768   8.605   3.588
10270SOL    HW235658   2.855   8.500   3.521
10271SOL     OW35659   2.587   8.394   2.367
10271SOL    HW135660   2.598   8.483   2.403
10271SOL    HW235661   2.664   8.382   2.311
10272SOL     OW35662   2.253   8.293   3.111
10272SOL    HW135663   2.300   8.329   3.186
10272SOL    HW235664   2.260   8.198   3.122
10273SOL     OW35665   3.140   7.803   3.131
10273SOL    HW135666   3.185   7.876   3.171
10273SOL    HW235667   3.049   7.832   3.121
10274SOL     OW35668   1.892   8.995   3.229
10274SOL    HW135669   1.830   9.034   3.168
10274SOL    HW235670   1.939   9.069   3.266
10275SOL     OW35671   2.465   8.031   2.694
10275SOL    HW135672   2.470   8.095   2.623
10275SOL    HW235673   2.521   8.067   2.763
10276SOL     OW35674   3.105   8.819   2.295
10276SOL    HW135675   3.161   8.896   2.302
10276SOL    HW235676   3.019   8.849   2.323
10277SOL     OW35677   3.140   8.923   3.036
10277SOL    HW135678   3.200   8.914   3.110
10277SOL    HW235679   3.058   8.885   3.067
10278SOL     OW35680   3.450   8.092   2.231
10278SOL    HW135681   3.437   8.111   2.324
10278SOL    HW235682   3.439   8.176   2.188
10279SOL     OW35683   2.270   8.855   3.188
10279SOL    HW135684   2.215   8.884   3.115
10279SOL    HW235685   2.336   8.924   3.198
10280SOL     OW35686   2.306   8.213   3.496
10280SOL    HW135687   2.336   8.288   3.444
10280SOL    HW235688   2.332   8.137   3.445
10281SOL     OW35689   3.426   8.295   3.495
10281SOL    HW135690   3.340   8.319   3.528
10281SOL    HW235691   3.411   8.272   3.403
10282SOL     OW35692   2.878   7.639   3.661
10282SOL    HW135693   2.926   7.714   3.625
10282SOL    HW235694   2.932   7.563   3.638
10283SOL     OW35695   2.321   7.486   3.630
10283SOL    HW135696   2.267   7.444   3.563
10283SOL    HW235697   2.278   7.570   3.647
10284SOL     OW35698   2.436   8.400   2.925
10284SOL    HW135699   2.421   8.486   2.886
10284SOL    HW235700   2.375   8.395   2.998
10285SOL     OW35701   3.224   8.286   2.841
10285SOL    HW135702   3.134   8.256   2.825
10285SOL    HW235703   3.233   8.366   2.790
10286SOL     OW35704   3.092   7.952   2.132
10286SOL    HW135705   3.044   7.954   2.049
10286SOL    HW235706   3.043   8.011   2.189
10287SOL     OW35707   2.158   7.600   3.132
10287SOL    HW135708   2.108   7.645   3.200
10287SOL    HW235709   2.117   7.514   3.125
10288SOL     OW35710   1.972   8.743   3.132
10288SOL    HW135711   1.996   8.700   3.214
10288SOL    HW235712   1.947   8.832   3.159
10289SOL     OW35713   2.609   8.192   2.895
10289SOL    HW135714   2.673   8.237   2.840
10289SOL    HW235715   2.541   8.258   2.910
10290SOL     OW35716   3.477   8.452   3.762
10290SOL    HW135717   3.400   8.508   3.774
10290SOL    HW235718   3.474   8.391   3.836
10291SOL     OW35719   2.180   7.536   2.497
10291SOL    HW135720   2.147   7.624   2.517
10291SOL    HW235721   2.177   7.489   2.581
10292SOL     OW35722   3.407   7.821   2.267
10292SOL    HW135723   3.439   7.826   2.357
10292SOL    HW235724   3.404   7.912   2.237
10293SOL     OW35725   2.972   8.186   2.787
10293SOL    HW135726   2.908   8.256   2.797
10293SOL    HW235727   2.920   8.106   2.791
10294SOL     OW35728   2.873   9.007   3.574
10294SOL    HW135729   2.871   9.057   3.493
10294SOL    HW235730   2.783   8.974   3.585
10295SOL     OW35731   3.736   8.945   3.454
10295SOL    HW135732   3.747   8.981   3.366
10295SOL    HW235733   3.807   8.982   3.505
10296SOL     OW35734   2.241   8.367   3.736
10296SOL    HW135735   2.271   8.453   3.708
10296SOL    HW235736   2.269   8.307   3.666
10297SOL     OW35737   3.428   7.673   2.026
10297SOL    HW135738   3.354   7.613   2.038
10297SOL    HW235739   3.426   7.728   2.104
10298SOL     OW35740   3.114   8.215   1.879
10298SOL    HW135741   3.183   8.149   1.884
10298SOL    HW235742   3.136   8.266   1.801
10299SOL     OW35743   3.035   8.709   2.701
10299SOL    HW135744   2.966   8.660   2.655
10299SOL    HW235745   3.017   8.801   2.680
10300SOL     OW35746   2.241   8.214   2.837
10300SOL    HW135747   2.306   8.270   2.795
10300SOL    HW235748   2.220   8.259   2.918
10301SOL     OW35749   2.188   7.953   2.851
10301SOL    HW135750   2.097   7.946   2.880
10301SOL    HW235751   2.205   8.048   2.848
10302SOL     OW35752   3.009   7.854   3.554
10302SOL    HW135753   2.960   7.908   3.616
10302SOL    HW235754   3.087   7.907   3.535
10303SOL     OW35755   3.043   7.657   3.358
10303SOL    HW135756   3.015   7.728   3.416
10303SOL    HW235757   3.076   7.702   3.280
10304SOL     OW35758   1.867   8.765   2.049
10304SOL    HW135759   1.778   8.782   2.017
10304SOL    HW235760   1.863   8.677   2.086
10305SOL     OW35761   1.953   9.234   2.764
10305SOL    HW135762   1.922   9.151   2.729
10305SOL    HW235763   2.049   9.228   2.760
10306SOL     OW35764   2.388   8.979   2.773
10306SOL    HW135765   2.452   9.050   2.764
10306SOL    HW235766   2.440   8.899   2.766
10307SOL     OW35767   2.787   8.215   3.118
10307SOL    HW135768   2.764   8.303   3.145
10307SOL    HW235769   2.735   8.200   3.038
10308SOL     OW35770   1.941   7.979   2.961
10308SOL    HW135771   1.869   8.023   2.917
10308SOL    HW235772   1.931   8.002   3.053
10309SOL     OW35773   2.088   8.062   3.596
10309SOL    HW135774   2.156   8.122   3.567
10309SOL    HW235775   2.008   8.093   3.553
10310SOL     OW35776   3.184   8.417   3.552
10310SOL    HW135777   3.221   8.502   3.529
10310SOL    HW235778   3.094   8.420   3.520
10311SOL     OW35779   2.651   8.008   2.261
10311SOL    HW135780   2.668   7.949   2.187
10311SOL    HW235781   2.589   8.072   2.226
10312SOL     OW35782   3.509   7.980   3.093
10312SOL    HW135783   3.444   7.993   3.162
10312SOL    HW235784   3.462   7.997   3.011
10313SOL     OW35785   2.242   8.958   3.541
10313SOL    HW135786   2.192   9.034   3.571
10313SOL    HW235787   2.199   8.883   3.582
10314SOL     OW35788   2.547   8.001   3.101
10314SOL    HW135789   2.453   8.014   3.108
10314SOL    HW235790   2.574   8.057   3.028
10315SOL     OW35791   2.881   9.098   3.310
10315SOL    HW135792   2.829   9.061   3.238
10315SOL    HW235793   2.877   9.192   3.296
10316SOL     OW35794   2.322   7.938   2.106
10316SOL    HW135795   2.370   8.021   2.095
10316SOL    HW235796   2.232   7.959   2.080
10317SOL     OW35797   2.004   8.571   3.371
10317SOL    HW135798   1.998   8.523   3.453
10317SOL    HW235799   1.994   8.504   3.303
10318SOL     OW35800   3.188   8.428   3.080
10318SOL    HW135801   3.208   8.369   3.007
10318SOL    HW235802   3.126   8.491   3.045
10319SOL     OW35803   3.158   8.330   2.136
10319SOL    HW135804   3.101   8.406   2.126
10319SOL    HW235805   3.142   8.276   2.059
10320SOL     OW35806   3.617   9.161   3.007
10320SOL    HW135807   3.696   9.188   2.958
10320SOL    HW235808   3.585   9.085   2.959
10321SOL     OW35809   3.124   9.187   2.929
10321SOL    HW135810   3.213   9.204   2.898
10321SOL    HW235811   3.127   9.098   2.964
10322SOL     OW35812   1.957   8.728   2.859
10322SOL    HW135813   1.975   8.726   2.953
10322SOL    HW235814   1.873   8.773   2.852
10323SOL     OW35815   2.554   9.110   3.592
10323SOL    HW135816   2.485   9.146   3.537
10323SOL    HW235817   2.564   9.174   3.663
10324SOL     OW35818   3.608   7.604   2.362
10324SOL    HW135819   3.650   7.610   2.276
10324SOL    HW235820   3.517   7.581   2.343
10325SOL     OW35821   3.255   9.057   2.350
10325SOL    HW135822   3.328   9.060   2.287
10325SOL    HW235823   3.216   9.144   2.346
10326SOL     OW35824   2.067   9.157   3.621
10326SOL    HW135825   2.027   9.131   3.704
10326SOL    HW235826   2.108   9.241   3.639
10327SOL     OW35827   3.203   8.312   2.412
10327SOL    HW135828   3.183   8.303   2.319
10327SOL    HW235829   3.203   8.407   2.428
10328SOL     OW35830   2.647   8.736   3.260
10328SOL    HW135831   2.613   8.788   3.333
10328SOL    HW235832   2.581   8.746   3.191
10329SOL     OW35833   2.540   9.076   2.015
10329SOL    HW135834   2.566   9.117   1.933
10329SOL    HW235835   2.493   8.997   1.990
10330SOL     OW35836   3.481   9.146   3.262
10330SOL    HW135837   3.508   9.160   3.172
10330SOL    HW235838   3.478   9.233   3.301
10331SOL     OW35839   3.685   7.668   2.819
10331SOL    HW135840   3.706   7.692   2.729
10331SOL    HW235841   3.589   7.675   2.824
10332SOL     OW35842   2.092   7.774   2.619
10332SOL    HW135843   2.003   7.798   2.593
10332SOL    HW235844   2.082   7.735   2.706
10333SOL     OW35845   3.071   9.068   1.947
10333SOL    HW135846   3.063   8.975   1.969
10333SOL    HW235847   3.003   9.082   1.882
10334SOL     OW35848   2.698   8.470   3.198
10334SOL    HW135849   2.699   8.493   3.105
10334SOL    HW235850   2.688   8.554   3.243
10335SOL     OW35851   2.813   8.350   2.211
10335SOL    HW135852   2.853   8.384   2.132
10335SOL    HW235853   2.858   8.267   2.227
10336SOL     OW35854   3.349   9.072   1.929
10336SOL    HW135855   3.254   9.065   1.914
10336SOL    HW235856   3.387   9.087   1.843
10337SOL     OW35857   2.271   8.640   3.358
10337SOL    HW135858   2.278   8.718   3.303
10337SOL    HW235859   2.177   8.623   3.364
10338SOL     OW35860   3.511   8.752   3.089
10338SOL    HW135861   3.595   8.759   3.134
10338SOL    HW235862   3.449   8.796   3.148
10339SOL     OW35863   2.849   8.548   2.568
10339SOL    HW135864   2.764   8.586   2.549
10339SOL    HW235865   2.886   8.525   2.483
10340SOL     OW35866   2.944   7.685   2.787
10340SOL    HW135867   2.941   7.632   2.708
10340SOL    HW235868   2.909   7.628   2.855
10341SOL     OW35869   3.605   7.770   3.251
10341SOL    HW135870   3.580   7.849   3.203
10341SOL    HW235871   3.659   7.720   3.189
10342SOL     OW35872   2.105   8.750   2.253
10342SOL    HW135873   2.045   8.764   2.179
10342SOL    HW235874   2.084   8.821   2.314
10343SOL     OW35875   1.992   8.413   3.602
10343SOL    HW135876   1.911   8.421   3.652
10343SOL    HW235877   2.061   8.405   3.669
10344SOL     OW35878   2.530   7.656   3.366
10344SOL    HW135879   2.590   7.721   3.329
10344SOL    HW235880   2.546   7.659   3.460
10345SOL     OW35881   1.943   7.740   1.909
10345SOL    HW135882   1.881   7.760   1.839
10345SOL    HW235883   1.972   7.825   1.942
10346SOL     OW35884   3.353   8.266   3.228
10346SOL    HW135885   3.282   8.321   3.196
10346SOL    HW235886   3.429   8.291   3.175
10347SOL     OW35887   1.933   7.598   2.146
10347SOL    HW135888   1.914   7.650   2.067
10347SOL    HW235889   2.021   7.625   2.171
10348SOL     OW35890   3.051   8.793   2.010
10348SOL    HW135891   2.958   8.781   1.990
10348SOL    HW235892   3.055   8.789   2.105
10349SOL     OW35893   2.407   8.403   3.312
10349SOL    HW135894   2.366   8.488   3.329
10349SOL    HW235895   2.497   8.425   3.289
10350SOL     OW35896   3.383   9.257   2.858
10350SOL    HW135897   3.386   9.341   2.813
10350SOL    HW235898   3.464   9.253   2.909
10351SOL     OW35899   2.603   7.986   3.583
10351SOL    HW135900   2.516   8.007   3.616
10351SOL    HW235901   2.658   8.059   3.613
10352SOL     OW35902   3.289   8.667   3.485
10352SOL    HW135903   3.219   8.706   3.537
10352SOL    HW235904   3.342   8.742   3.455
10353SOL     OW35905   2.349   9.185   3.404
10353SOL    HW135906   2.297   9.245   3.458
10353SOL    HW235907   2.307   9.100   3.415
10354SOL     OW35908   3.570   8.348   3.066
10354SOL    HW135909   3.572   8.274   3.005
10354SOL    HW235910   3.542   8.422   3.013
10355SOL     OW35911   3.089   7.748   2.326
10355SOL    HW135912   3.104   7.812   2.256
10355SOL    HW235913   3.118   7.793   2.405
10356SOL     OW35914   2.432   8.207   2.491
10356SOL    HW135915   2.491   8.271   2.451
10356SOL    HW235916   2.363   8.194   2.426
10357SOL     OW35917   3.662   7.681   3.503
10357SOL    HW135918   3.644   7.726   3.420
10357SOL    HW235919   3.576   7.668   3.543
10358SOL     OW35920   3.639   8.426   3.324
10358SOL    HW135921   3.631   8.521   3.315
10358SOL    HW235922   3.615   8.392   3.238
10359SOL     OW35923   2.789   8.808   1.921
10359SOL    HW135924   2.735   8.818   2.000
10359SOL    HW235925   2.784   8.893   1.878
10360SOL     OW35926   2.514   9.262   2.784
10360SOL    HW135927   2.504   9.357   2.774
10360SOL    HW235928   2.607   9.246   2.767
10361SOL     OW35929   2.782   8.384   2.788
10361SOL    HW135930   2.801   8.431   2.706
10361SOL    HW235931   2.750   8.452   2.848
10362SOL     OW35932   2.943   8.424   1.979
10362SOL    HW135933   2.912   8.488   1.916
10362SOL    HW235934   2.985   8.356   1.927
10363SOL     OW35935   3.714   9.033   2.657
10363SOL    HW135936   3.672   9.086   2.589
10363SOL    HW235937   3.642   8.996   2.707
10364SOL     OW35938   2.072   8.767   3.667
10364SOL    HW135939   2.009   8.803   3.605
10364SOL    HW235940   2.024   8.763   3.750
10365SOL     OW35941   1.942   8.704   2.573
10365SOL    HW135942   1.935   8.726   2.666
10365SOL    HW235943   1.960   8.787   2.530
10366SOL     OW35944   2.516   8.865   3.481
10366SOL    HW135945   2.422   8.875   3.471
10366SOL    HW235946   2.545   8.946   3.523
10367SOL     OW35947   3.727   7.596   3.079
10367SOL    HW135948   3.698   7.504   3.079
10367SOL    HW235949   3.712   7.625   2.989
10368SOL     OW35950   2.321   7.906   2.408
10368SOL    HW135951   2.374   7.864   2.340
10368SOL    HW235952   2.287   7.985   2.366
10369SOL     OW35953   3.551   8.921   2.874
10369SOL    HW135954   3.464   8.921   2.833
10369SOL    HW235955   3.543   8.861   2.947
10370SOL     OW35956   2.263   8.016   3.126
10370SOL    HW135957   2.278   7.945   3.189
10370SOL    HW235958   2.239   7.971   3.045
10371SOL     OW35959   2.642   9.079   2.533
10371SOL    HW135960   2.618   9.139   2.463
10371SOL    HW235961   2.633   8.992   2.494
10372SOL     OW35962   3.253   7.548   3.091
10372SOL    HW135963   3.306   7.550   3.171
10372SOL    HW235964   3.208   7.633   3.090
10373SOL     OW35965   2.879   7.466   2.945
10373SOL    HW135966   2.826   7.420   2.880
10373SOL    HW235967   2.962   7.418   2.947
10374SOL     OW35968   2.632   8.801   2.143
10374SOL    HW135969   2.542   8.816   2.115
10374SOL    HW235970   2.631   8.816   2.238
10375SOL     OW35971   2.482   9.023   3.208
10375SOL    HW135972   2.462   9.100   3.261
10375SOL    HW235973   2.572   9.036   3.179
10376SOL     OW35974   3.211   7.505   2.069
10376SOL    HW135975   3.158   7.543   1.999
10376SOL    HW235976   3.164   7.426   2.095
10377SOL     OW35977   3.170   7.875   2.563
10377SOL    HW135978   3.125   7.957   2.546
10377SOL    HW235979   3.149   7.855   2.655
10378SOL     OW35980   3.415   7.698   2.759
10378SOL    HW135981   3.333   7.733   2.795
10378SOL    HW235982   3.432   7.751   2.682
10379SOL     OW35983   1.830   8.500   2.122
10379SOL    HW135984   1.830   8.465   2.033
10379SOL    HW235985   1.853   8.425   2.177
10380SOL     OW35986   2.743   9.111   2.203
10380SOL    HW135987   2.678   9.087   2.136
10380SOL    HW235988   2.704   9.187   2.247
10381SOL     OW35989   2.059   8.011   3.866
10381SOL    HW135990   2.017   8.079   3.918
10381SOL    HW235991   2.054   8.044   3.776
10382SOL     OW35992   2.064   7.751   4.709
10382SOL    HW135993   2.091   7.725   4.797
10382SOL    HW235994   1.971   7.725   4.705
10383SOL     OW35995   1.876   7.870   4.374
10383SOL    HW135996   1.801   7.901   4.426
10383SOL    HW235997   1.841   7.797   4.323
10384SOL     OW35998   2.431   8.782   4.907
10384SOL    HW135999   2.364   8.777   4.839
10384SOL    HW236000   2.389   8.828   4.979
10385SOL     OW36001   3.340   8.884   4.443
10385SOL    HW136002   3.274   8.927   4.498
10385SOL    HW236003   3.327   8.923   4.356
10386SOL     OW36004   3.074   8.093   4.431
10386SOL    HW136005   3.076   8.183   4.400
10386SOL    HW236006   2.985   8.079   4.462
10387SOL     OW36007   3.663   8.062   3.922
10387SOL    HW136008   3.570   8.040   3.927
10387SOL    HW236009   3.671   8.145   3.969
10388SOL     OW36010   2.621   8.614   4.800
10388SOL    HW136011   2.553   8.665   4.842
10388SOL    HW236012   2.655   8.671   4.731
10389SOL     OW36013   2.716   8.229   5.542
10389SOL    HW136014   2.683   8.279   5.616
10389SOL    HW236015   2.717   8.290   5.469
10390SOL     OW36016   2.538   8.420   4.417
10390SOL    HW136017   2.562   8.457   4.332
10390SOL    HW236018   2.464   8.474   4.446
10391SOL     OW36019   2.597   8.618   5.540
10391SOL    HW136020   2.597   8.709   5.509
10391SOL    HW236021   2.507   8.590   5.532
10392SOL     OW36022   2.225   8.802   4.732
10392SOL    HW136023   2.142   8.810   4.779
10392SOL    HW236024   2.242   8.889   4.696
10393SOL     OW36025   3.333   8.928   5.103
10393SOL    HW136026   3.366   9.017   5.091
10393SOL    HW236027   3.240   8.939   5.124
10394SOL     OW36028   2.339   7.699   5.222
10394SOL    HW136029   2.325   7.775   5.165
10394SOL    HW236030   2.253   7.682   5.261
10395SOL     OW36031   3.471   7.894   4.509
10395SOL    HW136032   3.431   7.953   4.445
10395SOL    HW236033   3.451   7.933   4.594
10396SOL     OW36034   2.133   9.132   4.180
10396SOL    HW136035   2.150   9.215   4.225
10396SOL    HW236036   2.069   9.154   4.112
10397SOL     OW36037   3.008   8.752   5.382
10397SOL    HW136038   2.964   8.834   5.405
10397SOL    HW236039   2.958   8.684   5.428
10398SOL     OW36040   2.051   8.921   4.328
10398SOL    HW136041   2.078   8.998   4.279
10398SOL    HW236042   1.999   8.955   4.400
10399SOL     OW36043   2.093   8.457   4.666
10399SOL    HW136044   2.057   8.418   4.746
10399SOL    HW236045   2.054   8.545   4.662
10400SOL     OW36046   3.510   7.574   5.213
10400SOL    HW136047   3.534   7.653   5.166
10400SOL    HW236048   3.456   7.604   5.286
10401SOL     OW36049   2.001   8.121   4.303
10401SOL    HW136050   1.954   8.042   4.328
10401SOL    HW236051   1.971   8.187   4.366
10402SOL     OW36052   3.722   9.200   4.040
10402SOL    HW136053   3.792   9.175   4.101
10402SOL    HW236054   3.731   9.295   4.031
10403SOL     OW36055   1.941   9.029   3.831
10403SOL    HW136056   1.915   8.941   3.857
10403SOL    HW236057   1.919   9.084   3.906
10404SOL     OW36058   3.593   8.360   4.298
10404SOL    HW136059   3.617   8.392   4.385
10404SOL    HW236060   3.549   8.435   4.257
10405SOL     OW36061   3.504   8.616   4.155
10405SOL    HW136062   3.486   8.682   4.088
10405SOL    HW236063   3.525   8.667   4.233
10406SOL     OW36064   2.458   8.832   4.461
10406SOL    HW136065   2.407   8.753   4.477
10406SOL    HW236066   2.432   8.861   4.374
10407SOL     OW36067   3.112   8.581   5.195
10407SOL    HW136068   3.085   8.616   5.111
10407SOL    HW236069   3.075   8.641   5.260
10408SOL     OW36070   1.989   8.336   4.890
10408SOL    HW136071   2.002   8.382   4.973
10408SOL    HW236072   1.894   8.323   4.885
10409SOL     OW36073   3.398   8.345   4.019
10409SOL    HW136074   3.304   8.335   4.005
10409SOL    HW236075   3.407   8.433   4.056
10410SOL     OW36076   3.069   9.284   5.336
10410SOL    HW136077   3.055   9.358   5.278
10410SOL    HW236078   3.047   9.207   5.283
10411SOL     OW36079   2.168   7.686   5.562
10411SOL    HW136080   2.173   7.779   5.537
10411SOL    HW236081   2.074   7.666   5.559
10412SOL     OW36082   3.291   8.819   4.750
10412SOL    HW136083   3.229   8.856   4.812
10412SOL    HW236084   3.240   8.804   4.671
10413SOL     OW36085   3.543   9.113   4.321
10413SOL    HW136086   3.518   9.096   4.230
10413SOL    HW236087   3.499   9.194   4.344
10414SOL     OW36088   2.457   8.138   3.994
10414SOL    HW136089   2.495   8.225   3.986
10414SOL    HW236090   2.389   8.147   4.061
10415SOL     OW36091   3.164   7.795   4.657
10415SOL    HW136092   3.069   7.788   4.656
10415SOL    HW236093   3.192   7.727   4.718
10416SOL     OW36094   3.462   9.090   4.048
10416SOL    HW136095   3.542   9.141   4.034
10416SOL    HW236096   3.424   9.080   3.960
10417SOL     OW36097   2.666   8.020   5.214
10417SOL    HW136098   2.623   8.000   5.297
10417SOL    HW236099   2.607   8.083   5.172
10418SOL     OW36100   3.256   7.947   5.378
10418SOL    HW136101   3.257   7.976   5.470
10418SOL    HW236102   3.308   7.867   5.379
10419SOL     OW36103   2.778   8.364   5.291
10419SOL    HW136104   2.811   8.286   5.246
10419SOL    HW236105   2.736   8.415   5.222
10420SOL     OW36106   2.871   7.880   4.944
10420SOL    HW136107   2.781   7.864   4.969
10420SOL    HW236108   2.879   7.840   4.857
10421SOL     OW36109   2.859   8.098   4.180
10421SOL    HW136110   2.862   8.192   4.166
10421SOL    HW236111   2.785   8.068   4.127
10422SOL     OW36112   1.923   8.316   4.488
10422SOL    HW136113   1.997   8.360   4.529
10422SOL    HW236114   1.847   8.366   4.518
10423SOL     OW36115   2.003   9.168   5.309
10423SOL    HW136116   2.052   9.174   5.391
10423SOL    HW236117   2.002   9.257   5.275
10424SOL     OW36118   2.788   7.770   3.886
10424SOL    HW136119   2.827   7.850   3.851
10424SOL    HW236120   2.810   7.702   3.823
10425SOL     OW36121   3.629   8.044   5.548
10425SOL    HW136122   3.583   8.123   5.518
10425SOL    HW236123   3.620   7.982   5.476
10426SOL     OW36124   3.268   8.556   4.291
10426SOL    HW136125   3.346   8.580   4.241
10426SOL    HW236126   3.204   8.623   4.270
10427SOL     OW36127   2.367   7.648   4.642
10427SOL    HW136128   2.387   7.652   4.736
10427SOL    HW236129   2.339   7.737   4.620
10428SOL     OW36130   2.870   8.859   4.335
10428SOL    HW136131   2.842   8.824   4.250
10428SOL    HW236132   2.824   8.943   4.343
10429SOL     OW36133   2.195   9.265   4.588
10429SOL    HW136134   2.239   9.182   4.605
10429SOL    HW236135   2.254   9.331   4.625
10430SOL     OW36136   3.627   8.485   4.547
10430SOL    HW136137   3.617   8.565   4.496
10430SOL    HW236138   3.575   8.500   4.626
10431SOL     OW36139   3.060   8.961   5.167
10431SOL    HW136140   3.041   8.897   5.236
10431SOL    HW236141   2.981   9.015   5.162
10432SOL     OW36142   2.274   8.369   4.021
10432SOL    HW136143   2.368   8.384   4.015
10432SOL    HW236144   2.244   8.365   3.931
10433SOL     OW36145   3.375   8.148   4.408
10433SOL    HW136146   3.285   8.156   4.440
10433SOL    HW236147   3.413   8.235   4.422
10434SOL     OW36148   2.330   8.591   5.484
10434SOL    HW136149   2.322   8.634   5.398
10434SOL    HW236150   2.261   8.631   5.537
10435SOL     OW36151   2.936   9.261   3.889
10435SOL    HW136152   2.873   9.301   3.949
10435SOL    HW236153   2.919   9.305   3.805
10436SOL     OW36154   2.074   7.720   5.284
10436SOL    HW136155   2.079   7.797   5.340
10436SOL    HW236156   1.981   7.696   5.283
10437SOL     OW36157   3.469   8.756   3.888
10437SOL    HW136158   3.442   8.845   3.867
10437SOL    HW236159   3.394   8.702   3.861
10438SOL     OW36160   2.502   9.128   4.014
10438SOL    HW136161   2.481   9.195   4.078
10438SOL    HW236162   2.517   9.176   3.932
10439SOL     OW36163   3.343   7.569   4.078
10439SOL    HW136164   3.292   7.496   4.044
10439SOL    HW236165   3.356   7.626   4.003
10440SOL     OW36166   2.137   9.259   4.977
10440SOL    HW136167   2.230   9.239   4.970
10440SOL    HW236168   2.098   9.222   4.897
10441SOL     OW36169   2.795   9.157   4.613
10441SOL    HW136170   2.810   9.084   4.673
10441SOL    HW236171   2.757   9.118   4.535
10442SOL     OW36172   2.258   8.153   4.204
10442SOL    HW136173   2.170   8.139   4.240
10442SOL    HW236174   2.249   8.233   4.152
10443SOL     OW36175   3.370   7.690   5.427
10443SOL    HW136176   3.387   7.678   5.520
10443SOL    HW236177   3.281   7.658   5.414
10444SOL     OW36178   2.499   7.552   3.827
10444SOL    HW136179   2.552   7.606   3.768
10444SOL    HW236180   2.429   7.517   3.771
10445SOL     OW36181   2.663   7.744   5.498
10445SOL    HW136182   2.659   7.719   5.406
10445SOL    HW236183   2.628   7.833   5.500
10446SOL     OW36184   2.813   8.948   4.805
10446SOL    HW136185   2.768   8.890   4.744
10446SOL    HW236186   2.746   8.971   4.870
10447SOL     OW36187   3.177   8.038   5.107
10447SOL    HW136188   3.191   8.005   5.196
10447SOL    HW236189   3.221   8.123   5.105
10448SOL     OW36190   2.700   8.799   4.596
10448SOL    HW136191   2.761   8.803   4.522
10448SOL    HW236192   2.614   8.815   4.557
10449SOL     OW36193   2.847   7.951   4.613
10449SOL    HW136194   2.760   7.970   4.576
10449SOL    HW236195   2.849   7.856   4.622
10450SOL     OW36196   2.390   7.567   4.219
10450SOL    HW136197   2.316   7.540   4.273
10450SOL    HW236198   2.361   7.648   4.178
10451SOL     OW36199   3.244   8.590   3.821
10451SOL    HW136200   3.189   8.534   3.766
10451SOL    HW236201   3.183   8.649   3.865
10452SOL     OW36202   2.137   7.514   3.894
10452SOL    HW136203   2.170   7.589   3.844
10452SOL    HW236204   2.208   7.494   3.956
10453SOL     OW36205   2.760   7.702   4.154
10453SOL    HW136206   2.761   7.716   4.060
10453SOL    HW236207   2.851   7.712   4.181
10454SOL     OW36208   2.919   8.092   5.257
10454SOL    HW136209   2.830   8.061   5.244
10454SOL    HW236210   2.933   8.086   5.352
10455SOL     OW36211   3.120   9.027   4.534
10455SOL    HW136212   3.120   9.089   4.462
10455SOL    HW236213   3.108   9.080   4.612
10456SOL     OW36214   2.324   8.581   4.482
10456SOL    HW136215   2.250   8.569   4.541
10456SOL    HW236216   2.286   8.577   4.394
10457SOL     OW36217   3.145   9.232   4.336
10457SOL    HW136218   3.196   9.300   4.292
10457SOL    HW236219   3.066   9.278   4.367
10458SOL     OW36220   2.897   7.994   3.766
10458SOL    HW136221   2.850   8.073   3.742
10458SOL    HW236222   2.949   8.019   3.842
10459SOL     OW36223   2.394   7.640   4.918
10459SOL    HW136224   2.410   7.558   4.965
10459SOL    HW236225   2.303   7.661   4.936
10460SOL     OW36226   2.682   7.964   4.349
10460SOL    HW136227   2.619   8.033   4.369
10460SOL    HW236228   2.755   8.010   4.307
10461SOL     OW36229   2.884   7.480   4.463
10461SOL    HW136230   2.801   7.507   4.424
10461SOL    HW236231   2.866   7.394   4.501
10462SOL     OW36232   3.262   8.544   4.573
10462SOL    HW136233   3.187   8.603   4.588
10462SOL    HW236234   3.272   8.543   4.477
10463SOL     OW36235   3.346   8.002   4.729
10463SOL    HW136236   3.273   7.942   4.712
10463SOL    HW236237   3.311   8.088   4.707
10464SOL     OW36238   3.744   8.284   4.073
10464SOL    HW136239   3.680   8.291   4.144
10464SOL    HW236240   3.761   8.375   4.048
10465SOL     OW36241   3.551   8.719   4.411
10465SOL    HW136242   3.617   8.786   4.429
10465SOL    HW236243   3.468   8.762   4.429
10466SOL     OW36244   3.262   7.968   3.862
10466SOL    HW136245   3.188   7.966   3.923
10466SOL    HW236246   3.252   8.051   3.816
10467SOL     OW36247   2.454   7.752   4.012
10467SOL    HW136248   2.473   7.682   3.949
10467SOL    HW236249   2.402   7.815   3.962
10468SOL     OW36250   3.633   8.622   5.392
10468SOL    HW136251   3.684   8.703   5.403
10468SOL    HW236252   3.544   8.646   5.419
10469SOL     OW36253   2.901   8.704   5.047
10469SOL    HW136254   2.835   8.765   5.079
10469SOL    HW236255   2.861   8.617   5.056
10470SOL     OW36256   3.568   9.038   5.297
10470SOL    HW136257   3.516   9.085   5.231
10470SOL    HW236258   3.508   9.027   5.371
10471SOL     OW36259   3.023   8.616   4.814
10471SOL    HW136260   2.977   8.668   4.879
10471SOL    HW236261   3.018   8.668   4.734
10472SOL     OW36262   3.459   8.581   4.758
10472SOL    HW136263   3.443   8.665   4.801
10472SOL    HW236264   3.396   8.577   4.687
10473SOL     OW36265   2.820   7.542   5.128
10473SOL    HW136266   2.805   7.534   5.034
10473SOL    HW236267   2.745   7.591   5.161
10474SOL     OW36268   2.855   8.542   5.488
10474SOL    HW136269   2.770   8.575   5.518
10474SOL    HW236270   2.833   8.483   5.415
10475SOL     OW36271   2.252   8.182   5.003
10475SOL    HW136272   2.336   8.204   5.043
10475SOL    HW236273   2.191   8.175   5.076
10476SOL     OW36274   1.864   9.039   4.995
10476SOL    HW136275   1.808   9.069   4.923
10476SOL    HW236276   1.922   9.113   5.012
10477SOL     OW36277   2.261   8.567   4.216
10477SOL    HW136278   2.197   8.630   4.183
10477SOL    HW236279   2.259   8.496   4.151
10478SOL     OW36280   2.532   7.997   4.615
10478SOL    HW136281   2.512   8.053   4.540
10478SOL    HW236282   2.447   7.967   4.646
10479SOL     OW36283   3.120   8.772   4.208
10479SOL    HW136284   3.162   8.858   4.210
10479SOL    HW236285   3.033   8.786   4.244
10480SOL     OW36286   3.078   8.928   4.890
10480SOL    HW136287   3.069   8.927   4.985
10480SOL    HW236288   2.988   8.933   4.857
10481SOL     OW36289   3.467   8.108   4.150
10481SOL    HW136290   3.439   8.129   4.239
10481SOL    HW236291   3.444   8.185   4.098
10482SOL     OW36292   2.309   8.958   5.088
10482SOL    HW136293   2.229   8.996   5.052
10482SOL    HW236294   2.361   9.033   5.116
10483SOL     OW36295   2.347   8.090   5.347
10483SOL    HW136296   2.282   8.160   5.355
10483SOL    HW236297   2.295   8.012   5.327
10484SOL     OW36298   3.484   8.259   5.434
10484SOL    HW136299   3.391   8.270   5.416
10484SOL    HW236300   3.527   8.306   5.362
10485SOL     OW36301   2.909   7.507   5.584
10485SOL    HW136302   2.882   7.595   5.556
10485SOL    HW236303   2.969   7.477   5.516
10486SOL     OW36304   2.339   7.482   5.486
10486SOL    HW136305   2.291   7.448   5.411
10486SOL    HW236306   2.290   7.560   5.512
10487SOL     OW36307   2.485   8.330   4.814
10487SOL    HW136308   2.484   8.424   4.798
10487SOL    HW236309   2.401   8.299   4.779
10488SOL     OW36310   3.223   8.239   4.669
10488SOL    HW136311   3.219   8.332   4.644
10488SOL    HW236312   3.135   8.219   4.700
10489SOL     OW36313   3.037   7.961   4.021
10489SOL    HW136314   3.025   7.876   4.063
10489SOL    HW236315   2.990   8.023   4.077
10490SOL     OW36316   2.121   7.670   4.975
10490SOL    HW136317   2.137   7.749   5.027
10490SOL    HW236318   2.030   7.646   4.994
10491SOL     OW36319   2.021   8.807   4.954
10491SOL    HW136320   2.025   8.760   5.037
10491SOL    HW236321   1.967   8.884   4.972
10492SOL     OW36322   2.610   8.092   4.860
10492SOL    HW136323   2.598   8.055   4.772
10492SOL    HW236324   2.560   8.174   4.858
10493SOL     OW36325   3.608   8.379   5.657
10493SOL    HW136326   3.554   8.341   5.587
10493SOL    HW236327   3.552   8.375   5.735
10494SOL     OW36328   2.161   7.504   4.360
10494SOL    HW136329   2.137   7.594   4.381
10494SOL    HW236330   2.182   7.464   4.445
10495SOL     OW36331   3.397   7.847   4.206
10495SOL    HW136332   3.315   7.863   4.254
10495SOL    HW236333   3.418   7.931   4.166
10496SOL     OW36334   2.968   8.141   4.782
10496SOL    HW136335   2.909   8.216   4.774
10496SOL    HW236336   2.931   8.075   4.723
10497SOL     OW36337   2.876   8.990   5.417
10497SOL    HW136338   2.835   9.042   5.348
10497SOL    HW236339   2.804   8.966   5.475
10498SOL     OW36340   2.256   8.340   5.579
10498SOL    HW136341   2.292   8.421   5.543
10498SOL    HW236342   2.211   8.299   5.505
10499SOL     OW36343   3.351   7.712   3.842
10499SOL    HW136344   3.269   7.663   3.837
10499SOL    HW236345   3.325   7.803   3.851
10500SOL     OW36346   3.192   8.204   3.734
10500SOL    HW136347   3.162   8.237   3.818
10500SOL    HW236348   3.180   8.278   3.674
10501SOL     OW36349   3.063   8.746   4.564
10501SOL    HW136350   3.008   8.701   4.500
10501SOL    HW236351   3.059   8.838   4.540
10502SOL     OW36352   2.239   8.217   4.730
10502SOL    HW136353   2.187   8.289   4.694
10502SOL    HW236354   2.217   8.215   4.823
10503SOL     OW36355   2.276   7.939   4.696
10503SOL    HW136356   2.191   7.897   4.706
10503SOL    HW236357   2.257   8.033   4.705
10504SOL     OW36358   3.015   7.813   5.429
10504SOL    HW136359   2.954   7.871   5.475
10504SOL    HW236360   3.090   7.869   5.408
10505SOL     OW36361   3.062   7.621   5.238
10505SOL    HW136362   3.038   7.694   5.295
10505SOL    HW236363   2.982   7.602   5.188
10506SOL     OW36364   1.887   8.752   3.889
10506SOL    HW136365   1.800   8.780   3.860
10506SOL    HW236366   1.874   8.664   3.923
10507SOL     OW36367   1.999   9.165   4.755
10507SOL    HW136368   1.904   9.179   4.749
10507SOL    HW236369   2.036   9.221   4.687
10508SOL     OW36370   2.347   9.030   4.629
10508SOL    HW136371   2.412   9.100   4.641
10508SOL    HW236372   2.390   8.967   4.571
10509SOL     OW36373   2.793   8.243   5.007
10509SOL    HW136374   2.759   8.332   5.016
10509SOL    HW236375   2.721   8.195   4.966
10510SOL     OW36376   1.957   8.001   4.990
10510SOL    HW136377   1.939   8.069   4.926
10510SOL    HW236378   2.002   8.046   5.061
10511SOL     OW36379   3.230   8.382   5.341
10511SOL    HW136380   3.285   8.452   5.375
10511SOL    HW236381   3.162   8.427   5.291
10512SOL     OW36382   2.657   7.969   4.046
10512SOL    HW136383   2.672   7.913   3.970
10512SOL    HW236384   2.591   8.031   4.017
10513SOL     OW36385   3.494   8.071   4.953
10513SOL    HW136386   3.423   8.106   5.007
10513SOL    HW236387   3.450   8.039   4.874
10514SOL     OW36388   2.261   8.929   5.554
10514SOL    HW136389   2.230   9.019   5.542
10514SOL    HW236390   2.185   8.875   5.532
10515SOL     OW36391   2.602   7.828   4.969
10515SOL    HW136392   2.525   7.778   4.940
10515SOL    HW236393   2.583   7.918   4.943
10516SOL     OW36394   2.824   9.110   5.159
10516SOL    HW136395   2.751   9.069   5.113
10516SOL    HW236396   2.814   9.204   5.141
10517SOL     OW36397   2.322   7.939   3.859
10517SOL    HW136398   2.370   8.016   3.891
10517SOL    HW236399   2.230   7.964   3.866
10518SOL     OW36400   2.033   8.641   5.210
10518SOL    HW136401   2.044   8.574   5.277
10518SOL    HW236402   1.942   8.670   5.220
10519SOL     OW36403   3.229   8.461   4.895
10519SOL    HW136404   3.292   8.500   4.835
10519SOL    HW236405   3.146   8.505   4.876
10520SOL     OW36406   3.124   8.326   3.980
10520SOL    HW136407   3.067   8.319   4.056
10520SOL    HW236408   3.075   8.381   3.918
10521SOL     OW36409   3.627   9.162   4.853
10521SOL    HW136410   3.698   9.188   4.795
10521SOL    HW236411   3.606   9.073   4.827
10522SOL     OW36412   3.124   9.174   4.772
10522SOL    HW136413   3.217   9.196   4.759
10522SOL    HW236414   3.125   9.093   4.823
10523SOL     OW36415   1.932   8.678   4.727
10523SOL    HW136416   1.960   8.725   4.805
10523SOL    HW236417   1.844   8.648   4.747
10524SOL     OW36418   2.525   9.135   5.431
10524SOL    HW136419   2.508   9.227   5.450
10524SOL    HW236420   2.507   9.126   5.337
10525SOL     OW36421   3.255   9.010   4.213
10525SOL    HW136422   3.315   9.045   4.148
10525SOL    HW236423   3.208   9.087   4.246
10526SOL     OW36424   2.119   9.169   5.559
10526SOL    HW136425   2.057   9.115   5.609
10526SOL    HW236426   2.125   9.251   5.609
10527SOL     OW36427   3.098   8.354   4.365
10527SOL    HW136428   3.164   8.413   4.329
10527SOL    HW236429   3.023   8.411   4.383
10528SOL     OW36430   2.651   8.771   5.156
10528SOL    HW136431   2.612   8.792   5.241
10528SOL    HW236432   2.619   8.839   5.097
10529SOL     OW36433   3.463   9.175   5.084
10529SOL    HW136434   3.515   9.180   5.004
10529SOL    HW236435   3.446   9.266   5.108
10530SOL     OW36436   3.719   7.594   4.679
10530SOL    HW136437   3.733   7.501   4.660
10530SOL    HW236438   3.629   7.611   4.650
10531SOL     OW36439   2.127   7.771   4.436
10531SOL    HW136440   2.047   7.813   4.406
10531SOL    HW236441   2.117   7.766   4.531
10532SOL     OW36442   3.088   9.063   3.751
10532SOL    HW136443   3.044   9.123   3.811
10532SOL    HW236444   3.022   9.043   3.684
10533SOL     OW36445   2.691   8.510   5.059
10533SOL    HW136446   2.666   8.524   4.967
10533SOL    HW236447   2.662   8.589   5.104
10534SOL     OW36448   2.868   8.357   4.101
10534SOL    HW136449   2.848   8.441   4.142
10534SOL    HW236450   2.810   8.353   4.025
10535SOL     OW36451   3.369   9.006   3.789
10535SOL    HW136452   3.275   9.022   3.786
10535SOL    HW236453   3.399   9.015   3.699
10536SOL     OW36454   2.285   8.745   5.260
10536SOL    HW136455   2.297   8.821   5.203
10536SOL    HW236456   2.199   8.710   5.236
10537SOL     OW36457   3.526   8.765   4.994
10537SOL    HW136458   3.590   8.769   5.065
10537SOL    HW236459   3.449   8.810   5.027
10538SOL     OW36460   2.914   8.556   4.409
10538SOL    HW136461   2.849   8.522   4.471
10538SOL    HW236462   2.863   8.580   4.331
10539SOL     OW36463   2.906   7.675   4.678
10539SOL    HW136464   2.907   7.619   4.601
10539SOL    HW236465   2.871   7.620   4.748
10540SOL     OW36466   2.395   8.952   4.205
10540SOL    HW136467   2.301   8.967   4.221
10540SOL    HW236468   2.421   9.027   4.151
10541SOL     OW36469   3.614   7.826   5.100
10541SOL    HW136470   3.583   7.902   5.051
10541SOL    HW236471   3.639   7.763   5.032
10542SOL     OW36472   2.075   8.738   4.112
10542SOL    HW136473   2.017   8.767   4.041
10542SOL    HW236474   2.059   8.800   4.183
10543SOL     OW36475   2.007   8.479   5.439
10543SOL    HW136476   1.924   8.450   5.478
10543SOL    HW236477   2.049   8.398   5.409
10544SOL     OW36478   2.610   7.703   5.222
10544SOL    HW136479   2.624   7.764   5.150
10544SOL    HW236480   2.516   7.705   5.238
10545SOL     OW36481   1.943   7.775   3.760
10545SOL    HW136482   1.882   7.796   3.689
10545SOL    HW236483   1.957   7.858   3.805
10546SOL     OW36484   3.294   8.282   5.087
10546SOL    HW136485   3.252   8.340   5.023
10546SOL    HW236486   3.275   8.323   5.172
10547SOL     OW36487   1.887   7.591   3.986
10547SOL    HW136488   1.854   7.655   3.923
10547SOL    HW236489   1.976   7.572   3.957
10548SOL     OW36490   3.044   8.737   3.942
10548SOL    HW136491   2.950   8.736   3.959
10548SOL    HW236492   3.084   8.754   4.028
10549SOL     OW36493   2.491   8.227   5.153
10549SOL    HW136494   2.483   8.322   5.156
10549SOL    HW236495   2.438   8.196   5.227
10550SOL     OW36496   3.388   9.224   4.723
10550SOL    HW136497   3.397   9.309   4.682
10550SOL    HW236498   3.470   9.211   4.770
10551SOL     OW36499   2.571   8.001   5.476
10551SOL    HW136500   2.484   8.030   5.450
10551SOL    HW236501   2.612   8.078   5.515
10552SOL     OW36502   3.347   8.618   5.410
10552SOL    HW136503   3.310   8.639   5.496
10552SOL    HW236504   3.302   8.676   5.349
10553SOL     OW36505   3.520   8.404   4.967
10553SOL    HW136506   3.431   8.382   4.993
10553SOL    HW236507   3.510   8.476   4.905
10554SOL     OW36508   3.040   7.729   4.184
10554SOL    HW136509   3.108   7.667   4.158
10554SOL    HW236510   3.078   7.775   4.259
10555SOL     OW36511   2.484   8.151   4.385
10555SOL    HW136512   2.505   8.243   4.402
10555SOL    HW236513   2.404   8.155   4.332
10556SOL     OW36514   3.611   7.829   5.374
10556SOL    HW136515   3.610   7.839   5.279
10556SOL    HW236516   3.527   7.786   5.394
10557SOL     OW36517   3.620   8.401   5.234
10557SOL    HW136518   3.621   8.482   5.284
10557SOL    HW236519   3.586   8.426   5.148
10558SOL     OW36520   2.751   8.919   3.837
10558SOL    HW136521   2.810   8.912   3.912
10558SOL    HW236522   2.782   8.995   3.789
10559SOL     OW36523   2.516   9.243   4.635
10559SOL    HW136524   2.475   9.329   4.646
10559SOL    HW236525   2.609   9.262   4.625
10560SOL     OW36526   2.745   8.440   4.601
10560SOL    HW136527   2.669   8.422   4.545
10560SOL    HW236528   2.707   8.484   4.678
10561SOL     OW36529   2.963   8.439   3.792
10561SOL    HW136530   2.880   8.417   3.834
10561SOL    HW236531   2.939   8.500   3.722
10562SOL     OW36532   3.683   8.957   4.497
10562SOL    HW136533   3.626   9.012   4.442
10562SOL    HW236534   3.637   8.952   4.581
10563SOL     OW36535   2.098   8.673   5.611
10563SOL    HW136536   2.058   8.615   5.546
10563SOL    HW236537   2.023   8.713   5.656
10564SOL     OW36538   1.948   8.692   4.449
10564SOL    HW136539   1.945   8.704   4.544
10564SOL    HW236540   1.996   8.768   4.417
10565SOL     OW36541   2.525   8.853   5.391
10565SOL    HW136542   2.435   8.827   5.373
10565SOL    HW236543   2.520   8.945   5.416
10566SOL     OW36544   3.695   7.612   4.952
10566SOL    HW136545   3.672   7.521   4.968
10566SOL    HW236546   3.708   7.618   4.857
10567SOL     OW36547   2.342   7.874   4.276
10567SOL    HW136548   2.308   7.960   4.249
10567SOL    HW236549   2.276   7.840   4.335
10568SOL     OW36550   3.557   8.907   4.759
10568SOL    HW136551   3.465   8.901   4.731
10568SOL    HW236552   3.560   8.862   4.843
10569SOL     OW36553   2.238   7.911   5.081
10569SOL    HW136554   2.175   7.959   5.136
10569SOL    HW236555   2.258   7.971   5.010
10570SOL     OW36556   2.695   9.077   4.366
10570SOL    HW136557   2.705   9.163   4.326
10570SOL    HW236558   2.603   9.055   4.353
10571SOL     OW36559   3.258   7.599   4.826
10571SOL    HW136560   3.222   7.511   4.814
10571SOL    HW236561   3.233   7.623   4.915
10572SOL     OW36562   2.793   7.482   4.850
10572SOL    HW136563   2.704   7.479   4.814
10572SOL    HW236564   2.812   7.390   4.872
10573SOL     OW36565   2.608   9.002   4.994
10573SOL    HW136566   2.562   9.070   5.043
10573SOL    HW236567   2.543   8.967   4.933
10574SOL     OW36568   3.150   7.530   3.832
10574SOL    HW136569   3.126   7.501   3.743
10574SOL    HW236570   3.087   7.485   3.889
10575SOL     OW36571   3.186   7.854   4.384
10575SOL    HW136572   3.148   7.941   4.387
10575SOL    HW236573   3.187   7.825   4.475
10576SOL     OW36574   3.451   7.636   4.623
10576SOL    HW136575   3.385   7.639   4.692
10576SOL    HW236576   3.446   7.723   4.582
10577SOL     OW36577   1.888   8.504   4.036
10577SOL    HW136578   1.965   8.532   4.085
10577SOL    HW236579   1.901   8.411   4.021
10578SOL     OW36580   2.084   7.748   6.594
10578SOL    HW136581   2.113   7.719   6.680
10578SOL    HW236582   1.995   7.713   6.585
10579SOL     OW36583   1.844   7.842   6.236
10579SOL    HW136584   1.759   7.869   6.271
10579SOL    HW236585   1.825   7.765   6.183
10580SOL     OW36586   2.514   8.804   6.794
10580SOL    HW136587   2.438   8.791   6.737
10580SOL    HW236588   2.519   8.899   6.807
10581SOL     OW36589   3.380   8.943   6.268
10581SOL    HW136590   3.323   8.989   6.330
10581SOL    HW236591   3.335   8.949   6.184
10582SOL     OW36592   3.118   8.075   6.334
10582SOL    HW136593   3.109   8.155   6.282
10582SOL    HW236594   3.043   8.077   6.395
10583SOL     OW36595   3.645   7.896   5.779
10583SOL    HW136596   3.640   7.958   5.706
10583SOL    HW236597   3.590   7.935   5.847
10584SOL     OW36598   2.642   8.243   7.432
10584SOL    HW136599   2.613   8.264   7.521
10584SOL    HW236600   2.636   8.326   7.384
10585SOL     OW36601   2.590   8.519   7.371
10585SOL    HW136602   2.579   8.507   7.465
10585SOL    HW236603   2.515   8.571   7.344
10586SOL     OW36604   2.288   8.834   6.635
10586SOL    HW136605   2.204   8.800   6.605
10586SOL    HW236606   2.312   8.901   6.571
10587SOL     OW36607   3.306   8.997   6.949
10587SOL    HW136608   3.370   9.067   6.964
10587SOL    HW236609   3.233   9.018   7.008
10588SOL     OW36610   2.383   7.839   7.081
10588SOL    HW136611   2.411   7.889   7.158
10588SOL    HW236612   2.292   7.816   7.100
10589SOL     OW36613   3.480   7.971   6.340
10589SOL    HW136614   3.411   7.913   6.309
10589SOL    HW236615   3.461   8.055   6.300
10590SOL     OW36616   2.107   9.157   6.049
10590SOL    HW136617   2.120   9.237   6.101
10590SOL    HW236618   2.179   9.158   5.986
10591SOL     OW36619   3.031   8.746   7.231
10591SOL    HW136620   3.041   8.825   7.283
10591SOL    HW236621   2.977   8.688   7.285
10592SOL     OW36622   2.009   8.935   6.185
10592SOL    HW136623   2.043   9.014   6.144
10592SOL    HW236624   1.951   8.967   6.254
10593SOL     OW36625   2.218   8.530   6.460
10593SOL    HW136626   2.176   8.446   6.474
10593SOL    HW236627   2.160   8.594   6.502
10594SOL     OW36628   2.495   9.230   7.051
10594SOL    HW136629   2.403   9.217   7.073
10594SOL    HW236630   2.508   9.325   7.054
10595SOL     OW36631   2.630   8.382   5.755
10595SOL    HW136632   2.618   8.475   5.737
10595SOL    HW236633   2.663   8.379   5.845
10596SOL     OW36634   3.464   7.567   7.025
10596SOL    HW136635   3.515   7.647   7.011
10596SOL    HW236636   3.437   7.573   7.117
10597SOL     OW36637   1.987   8.076   6.148
10597SOL    HW136638   1.942   7.994   6.169
10597SOL    HW236639   1.982   8.127   6.229
10598SOL     OW36640   3.740   9.185   5.872
10598SOL    HW136641   3.813   9.173   5.932
10598SOL    HW236642   3.744   9.278   5.847
10599SOL     OW36643   1.962   9.005   5.707
10599SOL    HW136644   1.922   8.919   5.720
10599SOL    HW236645   1.918   9.062   5.770
10600SOL     OW36646   3.555   8.411   6.210
10600SOL    HW136647   3.635   8.445   6.251
10600SOL    HW236648   3.529   8.480   6.149
10601SOL     OW36649   3.474   8.614   6.030
10601SOL    HW136650   3.514   8.664   5.959
10601SOL    HW236651   3.480   8.672   6.106
10602SOL     OW36652   1.944   8.223   7.162
10602SOL    HW136653   1.984   8.289   7.219
10602SOL    HW236654   1.864   8.265   7.129
10603SOL     OW36655   3.130   8.721   6.983
10603SOL    HW136656   3.223   8.700   6.992
10603SOL    HW236657   3.098   8.731   7.073
10604SOL     OW36658   2.693   7.460   6.143
10604SOL    HW136659   2.738   7.525   6.090
10604SOL    HW236660   2.600   7.483   6.134
10605SOL     OW36661   2.040   8.411   6.894
10605SOL    HW136662   2.127   8.371   6.896
10605SOL    HW236663   2.019   8.418   6.801
10606SOL     OW36664   3.482   8.359   5.898
10606SOL    HW136665   3.392   8.326   5.891
10606SOL    HW236666   3.474   8.442   5.944
10607SOL     OW36667   3.139   9.329   7.247
10607SOL    HW136668   3.108   9.394   7.183
10607SOL    HW236669   3.122   9.244   7.206
10608SOL     OW36670   2.141   7.663   7.375
10608SOL    HW136671   2.187   7.666   7.459
10608SOL    HW236672   2.056   7.704   7.393
10609SOL     OW36673   3.260   8.867   6.569
10609SOL    HW136674   3.196   8.861   6.640
10609SOL    HW236675   3.230   8.940   6.516
10610SOL     OW36676   3.561   9.134   6.163
10610SOL    HW136677   3.546   9.130   6.069
10610SOL    HW236678   3.482   9.095   6.202
10611SOL     OW36679   2.445   8.142   5.839
10611SOL    HW136680   2.461   8.230   5.803
10611SOL    HW236681   2.395   8.157   5.919
10612SOL     OW36682   3.180   7.766   6.519
10612SOL    HW136683   3.094   7.729   6.539
10612SOL    HW236684   3.182   7.849   6.566
10613SOL     OW36685   3.478   9.095   5.892
10613SOL    HW136686   3.566   9.125   5.874
10613SOL    HW236687   3.437   9.086   5.806
10614SOL     OW36688   2.663   8.019   7.060
10614SOL    HW136689   2.614   7.984   7.134
10614SOL    HW236690   2.624   7.978   6.983
10615SOL     OW36691   2.934   8.392   7.121
10615SOL    HW136692   2.937   8.297   7.116
10615SOL    HW236693   2.866   8.417   7.058
10616SOL     OW36694   2.850   7.840   6.853
10616SOL    HW136695   2.861   7.887   6.936
10616SOL    HW236696   2.769   7.874   6.816
10617SOL     OW36697   2.871   8.122   6.083
10617SOL    HW136698   2.805   8.177   6.127
10617SOL    HW236699   2.914   8.181   6.022
10618SOL     OW36700   1.964   8.213   6.381
10618SOL    HW136701   2.039   8.228   6.439
10618SOL    HW236702   1.898   8.277   6.410
10619SOL     OW36703   1.981   9.262   7.120
10619SOL    HW136704   1.982   9.267   7.216
10619SOL    HW236705   1.943   9.346   7.092
10620SOL     OW36706   2.683   7.760   5.787
10620SOL    HW136707   2.689   7.851   5.815
10620SOL    HW236708   2.681   7.765   5.691
10621SOL     OW36709   3.205   8.566   6.105
10621SOL    HW136710   3.289   8.581   6.061
10621SOL    HW236711   3.147   8.634   6.070
10622SOL     OW36712   2.421   7.583   6.542
10622SOL    HW136713   2.418   7.629   6.626
10622SOL    HW236714   2.424   7.653   6.477
10623SOL     OW36715   2.821   8.900   6.037
10623SOL    HW136716   2.810   8.969   5.972
10623SOL    HW236717   2.771   8.931   6.113
10624SOL     OW36718   2.208   9.234   6.450
10624SOL    HW136719   2.278   9.169   6.458
10624SOL    HW236720   2.243   9.312   6.492
10625SOL     OW36721   3.073   9.082   7.084
10625SOL    HW136722   3.067   9.041   7.170
10625SOL    HW236723   2.983   9.102   7.061
10626SOL     OW36724   2.166   8.480   5.808
10626SOL    HW136725   2.154   8.558   5.754
10626SOL    HW236726   2.195   8.413   5.746
10627SOL     OW36727   3.390   8.195   6.208
10627SOL    HW136728   3.303   8.234   6.216
10627SOL    HW236729   3.450   8.269   6.210
10628SOL     OW36730   2.364   8.692   7.309
10628SOL    HW136731   2.324   8.705   7.223
10628SOL    HW236732   2.290   8.698   7.370
10629SOL     OW36733   3.033   9.148   5.843
10629SOL    HW136734   2.939   9.142   5.858
10629SOL    HW236735   3.045   9.107   5.757
10630SOL     OW36736   2.104   7.764   7.114
10630SOL    HW136737   2.092   7.850   7.153
10630SOL    HW236738   2.118   7.705   7.189
10631SOL     OW36739   3.450   8.816   5.631
10631SOL    HW136740   3.424   8.908   5.628
10631SOL    HW236741   3.368   8.768   5.643
10632SOL     OW36742   2.369   9.195   5.913
10632SOL    HW136743   2.384   9.267   5.973
10632SOL    HW236744   2.394   9.230   5.827
10633SOL     OW36745   3.233   7.545   6.004
10633SOL    HW136746   3.210   7.518   5.915
10633SOL    HW236747   3.301   7.611   5.992
10634SOL     OW36748   2.127   9.222   6.803
10634SOL    HW136749   2.144   9.135   6.840
10634SOL    HW236750   2.074   9.205   6.725
10635SOL     OW36751   2.752   9.154   6.413
10635SOL    HW136752   2.815   9.088   6.442
10635SOL    HW236753   2.712   9.116   6.335
10636SOL     OW36754   2.293   8.121   6.082
10636SOL    HW136755   2.294   8.026   6.097
10636SOL    HW236756   2.201   8.146   6.092
10637SOL     OW36757   3.405   7.605   7.290
10637SOL    HW136758   3.420   7.603   7.384
10637SOL    HW236759   3.322   7.653   7.280
10638SOL     OW36760   2.584   7.503   5.610
10638SOL    HW136761   2.609   7.591   5.584
10638SOL    HW236762   2.492   7.496   5.584
10639SOL     OW36763   2.622   7.676   7.358
10639SOL    HW136764   2.657   7.623   7.430
10639SOL    HW236765   2.565   7.740   7.400
10640SOL     OW36766   2.786   8.902   6.670
10640SOL    HW136767   2.716   8.866   6.616
10640SOL    HW236768   2.803   8.834   6.736
10641SOL     OW36769   3.273   8.021   6.989
10641SOL    HW136770   3.253   7.999   7.081
10641SOL    HW236771   3.271   8.117   6.987
10642SOL     OW36772   2.761   7.873   6.492
10642SOL    HW136773   2.669   7.888   6.512
10642SOL    HW236774   2.768   7.883   6.397
10643SOL     OW36775   2.426   7.518   6.078
10643SOL    HW136776   2.344   7.513   6.126
10643SOL    HW236777   2.417   7.596   6.023
10644SOL     OW36778   3.222   8.661   5.653
10644SOL    HW136779   3.177   8.579   5.673
10644SOL    HW236780   3.158   8.729   5.673
10645SOL     OW36781   2.189   7.543   5.788
10645SOL    HW136782   2.185   7.597   5.710
10645SOL    HW236783   2.260   7.582   5.841
10646SOL     OW36784   2.832   7.619   5.973
10646SOL    HW136785   2.779   7.666   5.908
10646SOL    HW236786   2.899   7.681   5.999
10647SOL     OW36787   2.923   8.115   7.080
10647SOL    HW136788   2.833   8.085   7.092
10647SOL    HW236789   2.973   8.066   7.145
10648SOL     OW36790   3.207   9.090   6.420
10648SOL    HW136791   3.176   9.143   6.347
10648SOL    HW236792   3.242   9.153   6.483
10649SOL     OW36793   3.154   9.240   6.193
10649SOL    HW136794   3.200   9.308   6.142
10649SOL    HW236795   3.070   9.279   6.214
10650SOL     OW36796   2.931   8.060   5.558
10650SOL    HW136797   2.852   8.112   5.560
10650SOL    HW236798   2.941   8.028   5.647
10651SOL     OW36799   1.984   8.030   6.971
10651SOL    HW136800   2.076   8.033   6.947
10651SOL    HW236801   1.972   8.105   7.029
10652SOL     OW36802   2.409   7.714   6.789
10652SOL    HW136803   2.446   7.718   6.877
10652SOL    HW236804   2.316   7.697   6.803
10653SOL     OW36805   2.749   7.922   6.228
10653SOL    HW136806   2.663   7.962   6.223
10653SOL    HW236807   2.805   7.977   6.173
10654SOL     OW36808   2.906   7.492   6.345
10654SOL    HW136809   2.839   7.507   6.278
10654SOL    HW236810   2.870   7.421   6.399
10655SOL     OW36811   3.213   8.606   6.379
10655SOL    HW136812   3.124   8.636   6.401
10655SOL    HW236813   3.210   8.590   6.285
10656SOL     OW36814   3.286   8.048   6.557
10656SOL    HW136815   3.241   8.054   6.472
10656SOL    HW236816   3.258   8.125   6.605
10657SOL     OW36817   3.742   8.230   5.901
10657SOL    HW136818   3.771   8.181   5.979
10657SOL    HW236819   3.652   8.256   5.921
10658SOL     OW36820   2.342   8.835   5.798
10658SOL    HW136821   2.258   8.822   5.843
10658SOL    HW236822   2.317   8.859   5.709
10659SOL     OW36823   3.531   8.720   6.304
10659SOL    HW136824   3.622   8.718   6.274
10659SOL    HW236825   3.500   8.808   6.282
10660SOL     OW36826   3.244   7.988   5.652
10660SOL    HW136827   3.179   7.965   5.719
10660SOL    HW236828   3.239   8.084   5.645
10661SOL     OW36829   2.395   7.714   5.882
10661SOL    HW136830   2.487   7.725   5.858
10661SOL    HW236831   2.350   7.785   5.837
10662SOL     OW36832   3.600   8.701   7.111
10662SOL    HW136833   3.686   8.735   7.137
10662SOL    HW236834   3.537   8.756   7.159
10663SOL     OW36835   2.875   8.738   6.877
10663SOL    HW136836   2.799   8.727   6.934
10663SOL    HW236837   2.951   8.722   6.934
10664SOL     OW36838   3.446   8.902   7.218
10664SOL    HW136839   3.467   8.975   7.158
10664SOL    HW236840   3.422   8.945   7.300
10665SOL     OW36841   3.042   8.646   6.676
10665SOL    HW136842   2.973   8.673   6.738
10665SOL    HW236843   3.004   8.663   6.590
10666SOL     OW36844   3.450   8.577   6.689
10666SOL    HW136845   3.471   8.641   6.757
10666SOL    HW236846   3.371   8.533   6.722
10667SOL     OW36847   2.791   7.511   6.979
10667SOL    HW136848   2.708   7.549   7.008
10667SOL    HW236849   2.851   7.525   7.052
10668SOL     OW36850   2.869   8.551   7.344
10668SOL    HW136851   2.774   8.554   7.357
10668SOL    HW236852   2.881   8.493   7.268
10669SOL     OW36853   2.289   8.285   6.902
10669SOL    HW136854   2.362   8.293   6.963
10669SOL    HW236855   2.265   8.192   6.904
10670SOL     OW36856   3.144   7.839   6.832
10670SOL    HW136857   3.193   7.906   6.881
10670SOL    HW236858   3.060   7.880   6.814
10671SOL     OW36859   1.919   9.045   6.952
10671SOL    HW136860   1.867   9.086   6.883
10671SOL    HW236861   1.953   9.118   7.004
10672SOL     OW36862   2.272   8.594   6.055
10672SOL    HW136863   2.223   8.672   6.031
10672SOL    HW236864   2.254   8.532   5.983
10673SOL     OW36865   2.489   7.948   6.483
10673SOL    HW136866   2.487   7.977   6.391
10673SOL    HW236867   2.511   8.026   6.533
10674SOL     OW36868   3.075   8.793   6.012
10674SOL    HW136869   3.131   8.871   6.017
10674SOL    HW236870   2.987   8.825   6.033
10675SOL     OW36871   3.088   8.940   6.791
10675SOL    HW136872   3.168   8.971   6.834
10675SOL    HW236873   3.071   8.855   6.831
10676SOL     OW36874   3.411   8.033   5.974
10676SOL    HW136875   3.411   8.083   6.055
10676SOL    HW236876   3.358   8.085   5.914
10677SOL     OW36877   2.243   8.962   6.879
10677SOL    HW136878   2.241   8.908   6.800
10677SOL    HW236879   2.327   9.009   6.874
10678SOL     OW36880   2.339   8.202   7.249
10678SOL    HW136881   2.397   8.246   7.187
10678SOL    HW236882   2.387   8.124   7.277
10679SOL     OW36883   3.465   8.228   7.218
10679SOL    HW136884   3.376   8.263   7.222
10679SOL    HW236885   3.516   8.297   7.175
10680SOL     OW36886   3.011   7.577   7.363
10680SOL    HW136887   2.939   7.622   7.407
10680SOL    HW236888   3.079   7.643   7.355
10681SOL     OW36889   2.348   7.479   7.318
10681SOL    HW136890   2.296   7.424   7.259
10681SOL    HW236891   2.288   7.549   7.343
10682SOL     OW36892   2.395   8.370   6.666
10682SOL    HW136893   2.401   8.465   6.655
10682SOL    HW236894   2.358   8.358   6.753
10683SOL     OW36895   3.144   8.296   6.549
10683SOL    HW136896   3.138   8.354   6.473
10683SOL    HW236897   3.061   8.249   6.550
10684SOL     OW36898   3.030   7.968   5.833
10684SOL    HW136899   3.037   7.897   5.897
10684SOL    HW236900   2.978   8.035   5.876
10685SOL     OW36901   2.150   7.656   6.853
10685SOL    HW136902   2.128   7.682   6.942
10685SOL    HW236903   2.122   7.564   6.847
10686SOL     OW36904   1.971   8.783   6.844
10686SOL    HW136905   1.963   8.729   6.923
10686SOL    HW236906   1.963   8.873   6.876
10687SOL     OW36907   2.565   8.156   6.643
10687SOL    HW136908   2.645   8.207   6.628
10687SOL    HW236909   2.496   8.222   6.651
10688SOL     OW36910   3.604   8.460   7.441
10688SOL    HW136911   3.538   8.512   7.396
10688SOL    HW236912   3.557   8.419   7.514
10689SOL     OW36913   2.181   7.499   6.208
10689SOL    HW136914   2.140   7.584   6.225
10689SOL    HW236915   2.185   7.457   6.293
10690SOL     OW36916   3.416   7.753   5.961
10690SOL    HW136917   3.470   7.735   6.038
10690SOL    HW236918   3.400   7.847   5.963
10691SOL     OW36919   2.941   8.082   6.546
10691SOL    HW136920   2.932   8.102   6.640
10691SOL    HW236921   2.875   8.014   6.531
10692SOL     OW36922   2.769   9.024   7.310
10692SOL    HW136923   2.704   9.094   7.321
10692SOL    HW236924   2.720   8.952   7.272
10693SOL     OW36925   3.808   8.871   7.186
10693SOL    HW136926   3.800   8.921   7.105
10693SOL    HW236927   3.854   8.929   7.247
10694SOL     OW36928   2.205   8.306   7.466
10694SOL    HW136929   2.276   8.328   7.527
10694SOL    HW236930   2.249   8.276   7.387
10695SOL     OW36931   3.399   7.637   5.697
10695SOL    HW136932   3.320   7.586   5.714
10695SOL    HW236933   3.407   7.694   5.773
10696SOL     OW36934   3.150   8.235   5.563
10696SOL    HW136935   3.075   8.178   5.546
10696SOL    HW236936   3.168   8.276   5.478
10697SOL     OW36937   2.952   8.690   6.421
10697SOL    HW136938   2.885   8.622   6.415
10697SOL    HW236939   2.906   8.770   6.396
10698SOL     OW36940   2.183   8.244   6.546
10698SOL    HW136941   2.261   8.287   6.580
10698SOL    HW236942   2.194   8.152   6.571
10699SOL     OW36943   2.244   7.973   6.615
10699SOL    HW136944   2.182   7.903   6.595
10699SOL    HW236945   2.320   7.955   6.559
10700SOL     OW36946   2.953   7.858   7.218
10700SOL    HW136947   2.903   7.907   7.283
10700SOL    HW236948   3.044   7.864   7.248
10701SOL     OW36949   3.032   7.674   7.026
10701SOL    HW136950   2.997   7.719   7.103
10701SOL    HW236951   3.093   7.736   6.987
10702SOL     OW36952   1.889   8.744   5.782
10702SOL    HW136953   1.802   8.774   5.757
10702SOL    HW236954   1.875   8.658   5.821
10703SOL     OW36955   1.968   9.168   6.558
10703SOL    HW136956   1.928   9.107   6.496
10703SOL    HW236957   2.049   9.196   6.516
10704SOL     OW36958   2.408   9.036   6.477
10704SOL    HW136959   2.463   9.092   6.532
10704SOL    HW236960   2.459   9.025   6.397
10705SOL     OW36961   2.910   8.153   6.807
10705SOL    HW136962   2.922   8.149   6.901
10705SOL    HW236963   2.860   8.233   6.792
10706SOL     OW36964   1.801   7.942   6.786
10706SOL    HW136965   1.805   7.945   6.691
10706SOL    HW236966   1.862   8.011   6.815
10707SOL     OW36967   2.072   7.992   7.258
10707SOL    HW136968   2.108   8.016   7.343
10707SOL    HW236969   2.032   8.073   7.225
10708SOL     OW36970   3.217   8.412   7.198
10708SOL    HW136971   3.252   8.492   7.237
10708SOL    HW236972   3.125   8.431   7.183
10709SOL     OW36973   2.694   8.021   5.866
10709SOL    HW136974   2.610   8.062   5.849
10709SOL    HW236975   2.732   8.072   5.937
10710SOL     OW36976   3.478   8.029   6.808
10710SOL    HW136977   3.403   8.028   6.867
10710SOL    HW236978   3.507   8.120   6.808
10711SOL     OW36979   2.104   8.983   7.299
10711SOL    HW136980   2.077   9.058   7.353
10711SOL    HW236981   2.126   8.915   7.363
10712SOL     OW36982   2.594   7.929   6.798
10712SOL    HW136983   2.525   7.871   6.765
10712SOL    HW236984   2.583   8.010   6.749
10713SOL     OW36985   2.815   9.160   6.974
10713SOL    HW136986   2.732   9.138   7.015
10713SOL    HW236987   2.818   9.256   6.976
10714SOL     OW36988   2.284   7.926   5.751
10714SOL    HW136989   2.335   8.005   5.768
10714SOL    HW236990   2.213   7.955   5.694
10715SOL     OW36991   1.988   8.592   7.090
10715SOL    HW136992   2.001   8.547   7.174
10715SOL    HW236993   2.006   8.525   7.024
10716SOL     OW36994   3.217   8.457   6.757
10716SOL    HW136995   3.192   8.395   6.689
10716SOL    HW236996   3.154   8.529   6.748
10717SOL     OW36997   3.233   8.251   5.844
10717SOL    HW136998   3.150   8.264   5.890
10717SOL    HW236999   3.213   8.267   5.752
10718SOL     OW37000   3.643   9.195   6.764
10718SOL    HW137001   3.715   9.187   6.701
10718SOL    HW237002   3.564   9.189   6.710
10719SOL     OW37003   2.043   8.711   6.582
10719SOL    HW137004   2.009   8.734   6.668
10719SOL    HW237005   1.970   8.724   6.522
10720SOL     OW37006   2.524   9.162   7.317
10720SOL    HW137007   2.459   9.226   7.347
10720SOL    HW237008   2.530   9.177   7.222
10721SOL     OW37009   3.610   7.632   6.133
10721SOL    HW137010   3.649   7.620   6.046
10721SOL    HW237011   3.582   7.544   6.158
10722SOL     OW37012   3.248   9.012   6.042
10722SOL    HW137013   3.313   9.046   5.979
10722SOL    HW237014   3.196   9.089   6.066
10723SOL     OW37015   2.033   9.245   7.401
10723SOL    HW137016   1.977   9.185   7.450
10723SOL    HW237017   2.077   9.297   7.468
10724SOL     OW37018   3.111   8.327   6.215
10724SOL    HW137019   3.147   8.406   6.174
10724SOL    HW237020   3.016   8.337   6.206
10725SOL     OW37021   2.641   8.700   7.013
10725SOL    HW137022   2.615   8.751   7.089
10725SOL    HW237023   2.584   8.732   6.942
10726SOL     OW37024   2.558   9.040   5.688
10726SOL    HW137025   2.541   9.082   5.604
10726SOL    HW237026   2.474   9.004   5.714
10727SOL     OW37027   3.493   9.188   6.999
10727SOL    HW137028   3.557   9.193   6.928
10727SOL    HW237029   3.465   9.279   7.013
10728SOL     OW37030   2.093   7.744   6.306
10728SOL    HW137031   2.010   7.784   6.282
10728SOL    HW237032   2.098   7.751   6.401
10729SOL     OW37033   3.092   9.030   5.595
10729SOL    HW137034   3.065   8.948   5.635
10729SOL    HW237035   3.029   9.045   5.524
10730SOL     OW37036   2.720   8.446   6.942
10730SOL    HW137037   2.722   8.461   6.847
10730SOL    HW237038   2.690   8.530   6.978
10731SOL     OW37039   2.960   8.302   5.892
10731SOL    HW137040   2.978   8.367   5.824
10731SOL    HW237041   2.876   8.327   5.928
10732SOL     OW37042   3.358   9.082   5.636
10732SOL    HW137043   3.264   9.065   5.622
10732SOL    HW237044   3.368   9.174   5.612
10733SOL     OW37045   2.232   8.753   7.076
10733SOL    HW137046   2.229   8.828   7.018
10733SOL    HW237047   2.144   8.716   7.073
10734SOL     OW37048   3.478   8.786   6.868
10734SOL    HW137049   3.529   8.760   6.945
10734SOL    HW237050   3.419   8.855   6.900
10735SOL     OW37051   2.921   7.668   6.575
10735SOL    HW137052   2.917   7.609   6.500
10735SOL    HW237053   2.864   7.741   6.552
10736SOL     OW37054   2.462   8.955   6.010
10736SOL    HW137055   2.423   8.898   5.943
10736SOL    HW237056   2.430   9.043   5.987
10737SOL     OW37057   3.592   7.816   6.957
10737SOL    HW137058   3.672   7.868   6.962
10737SOL    HW237059   3.528   7.873   6.916
10738SOL     OW37060   2.110   8.797   5.956
10738SOL    HW137061   2.036   8.790   5.896
10738SOL    HW237062   2.077   8.850   6.029
10739SOL     OW37063   1.992   8.437   7.335
10739SOL    HW137064   1.916   8.435   7.394
10739SOL    HW237065   2.065   8.408   7.390
10740SOL     OW37066   2.568   7.633   7.095
10740SOL    HW137067   2.505   7.704   7.085
10740SOL    HW237068   2.595   7.638   7.187
10741SOL     OW37069   1.894   7.653   5.587
10741SOL    HW137070   1.849   7.644   5.503
10741SOL    HW237071   1.896   7.747   5.603
10742SOL     OW37072   3.294   8.294   6.961
10742SOL    HW137073   3.259   8.351   6.894
10742SOL    HW237074   3.271   8.336   7.044
10743SOL     OW37075   1.915   7.551   5.846
10743SOL    HW137076   1.882   7.596   5.768
10743SOL    HW237077   2.010   7.562   5.841
10744SOL     OW37078   3.012   8.811   5.732
10744SOL    HW137079   2.919   8.819   5.710
10744SOL    HW237080   3.013   8.796   5.827
10745SOL     OW37081   2.527   8.266   7.045
10745SOL    HW137082   2.587   8.337   7.020
10745SOL    HW237083   2.583   8.189   7.052
10746SOL     OW37084   3.348   9.248   6.600
10746SOL    HW137085   3.382   9.316   6.541
10746SOL    HW237086   3.310   9.296   6.673
10747SOL     OW37087   2.508   7.983   7.303
10747SOL    HW137088   2.484   7.928   7.378
10747SOL    HW237089   2.568   8.049   7.341
10748SOL     OW37090   3.331   8.637   7.316
10748SOL    HW137091   3.283   8.650   7.398
10748SOL    HW237092   3.355   8.725   7.288
10749SOL     OW37093   2.243   9.178   7.149
10749SOL    HW137094   2.165   9.219   7.113
10749SOL    HW237095   2.211   9.097   7.189
10750SOL     OW37096   3.526   8.298   6.790
10750SOL    HW137097   3.477   8.314   6.870
10750SOL    HW237098   3.531   8.383   6.747
10751SOL     OW37099   3.067   7.769   6.034
10751SOL    HW137100   3.117   7.688   6.026
10751SOL    HW237101   3.108   7.814   6.108
10752SOL     OW37102   2.522   8.083   6.245
10752SOL    HW137103   2.581   8.158   6.235
10752SOL    HW237104   2.447   8.104   6.190
10753SOL     OW37105   3.618   7.781   7.261
10753SOL    HW137106   3.603   7.807   7.170
10753SOL    HW237107   3.546   7.721   7.281
10754SOL     OW37108   3.603   8.421   7.073
10754SOL    HW137109   3.592   8.513   7.095
10754SOL    HW237110   3.684   8.418   7.022
10755SOL     OW37111   2.753   8.853   5.650
10755SOL    HW137112   2.720   8.783   5.707
10755SOL    HW237113   2.690   8.924   5.659
10756SOL     OW37114   2.569   9.230   6.603
10756SOL    HW137115   2.518   9.308   6.582
10756SOL    HW237116   2.631   9.222   6.531
10757SOL     OW37117   2.780   8.319   6.591
10757SOL    HW137118   2.823   8.258   6.531
10757SOL    HW237119   2.766   8.398   6.539
10758SOL     OW37120   3.036   8.459   5.678
10758SOL    HW137121   2.967   8.500   5.625
10758SOL    HW237122   3.063   8.383   5.626
10759SOL     OW37123   3.710   9.018   6.366
10759SOL    HW137124   3.665   9.067   6.299
10759SOL    HW237125   3.641   8.986   6.424
10760SOL     OW37126   2.140   8.752   7.470
10760SOL    HW137127   2.053   8.724   7.444
10760SOL    HW237128   2.133   8.770   7.563
10761SOL     OW37129   1.927   8.693   6.300
10761SOL    HW137130   1.986   8.625   6.269
10761SOL    HW237131   1.959   8.773   6.258
10762SOL     OW37132   2.555   8.870   7.222
10762SOL    HW137133   2.500   8.802   7.260
10762SOL    HW237134   2.505   8.951   7.235
10763SOL     OW37135   3.750   7.653   6.784
10763SOL    HW137136   3.707   7.701   6.855
10763SOL    HW237137   3.681   7.633   6.722
10764SOL     OW37138   2.288   7.853   6.135
10764SOL    HW137139   2.286   7.802   6.053
10764SOL    HW237140   2.219   7.815   6.188
10765SOL     OW37141   3.539   8.868   6.602
10765SOL    HW137142   3.456   8.915   6.597
10765SOL    HW237143   3.549   8.847   6.695
10766SOL     OW37144   2.245   8.012   6.889
10766SOL    HW137145   2.308   7.953   6.930
10766SOL    HW237146   2.252   7.994   6.795
10767SOL     OW37147   2.639   9.055   6.189
10767SOL    HW137148   2.649   9.140   6.147
10767SOL    HW237149   2.573   9.010   6.136
10768SOL     OW37150   3.322   7.625   6.794
10768SOL    HW137151   3.357   7.602   6.880
10768SOL    HW237152   3.260   7.696   6.811
10769SOL     OW37153   2.669   8.719   5.875
10769SOL    HW137154   2.578   8.746   5.889
10769SOL    HW237155   2.719   8.768   5.941
10770SOL     OW37156   2.501   9.077   6.825
10770SOL    HW137157   2.501   9.134   6.901
10770SOL    HW237158   2.518   9.135   6.751
10771SOL     OW37159   3.161   7.487   5.740
10771SOL    HW137160   3.152   7.398   5.706
10771SOL    HW237161   3.079   7.531   5.716
10772SOL     OW37162   3.238   7.845   6.260
10772SOL    HW137163   3.196   7.931   6.268
10772SOL    HW237164   3.212   7.798   6.339
10773SOL     OW37165   3.448   7.757   6.590
10773SOL    HW137166   3.424   7.709   6.669
10773SOL    HW237167   3.369   7.756   6.537
10774SOL     OW37168   1.905   8.500   5.919
10774SOL    HW137169   1.995   8.491   5.889
10774SOL    HW237170   1.876   8.410   5.934
10775SOL     OW37171   2.757   9.112   5.873
10775SOL    HW137172   2.688   9.096   5.809
10775SOL    HW237173   2.723   9.182   5.929
10776SOL     OW37174   2.087   8.059   7.522
10776SOL    HW137175   2.012   8.059   7.582
10776SOL    HW237176   2.118   8.149   7.523
10777SOL     OW37177   2.121   7.683   8.465
10777SOL    HW137178   2.093   7.677   8.556
10777SOL    HW237179   2.067   7.752   8.427
10778SOL     OW37180   1.866   7.877   8.126
10778SOL    HW137181   1.907   7.887   8.212
10778SOL    HW237182   1.772   7.888   8.143
10779SOL     OW37183   2.487   8.752   8.602
10779SOL    HW137184   2.413   8.803   8.569
10779SOL    HW237185   2.560   8.814   8.600
10780SOL     OW37186   3.439   8.925   8.194
10780SOL    HW137187   3.389   8.925   8.276
10780SOL    HW237188   3.378   8.962   8.130
10781SOL     OW37189   3.043   8.131   8.119
10781SOL    HW137190   3.089   8.204   8.080
10781SOL    HW237191   3.016   8.162   8.205
10782SOL     OW37192   3.606   8.063   7.634
10782SOL    HW137193   3.622   8.145   7.681
10782SOL    HW237194   3.590   7.998   7.703
10783SOL     OW37195   2.624   8.548   8.495
10783SOL    HW137196   2.569   8.612   8.541
10783SOL    HW237197   2.676   8.600   8.433
10784SOL     OW37198   2.743   8.264   9.301
10784SOL    HW137199   2.675   8.309   9.351
10784SOL    HW237200   2.743   8.309   9.216
10785SOL     OW37201   2.577   8.626   9.284
10785SOL    HW137202   2.620   8.709   9.307
10785SOL    HW237203   2.496   8.652   9.242
10786SOL     OW37204   2.297   8.922   8.497
10786SOL    HW137205   2.214   8.930   8.450
10786SOL    HW237206   2.358   8.976   8.446
10787SOL     OW37207   3.339   8.936   8.794
10787SOL    HW137208   3.361   9.019   8.751
10787SOL    HW237209   3.249   8.948   8.824
10788SOL     OW37210   2.303   7.818   8.922
10788SOL    HW137211   2.354   7.765   8.984
10788SOL    HW237212   2.212   7.799   8.944
10789SOL     OW37213   3.433   7.847   8.200
10789SOL    HW137214   3.353   7.852   8.148
10789SOL    HW237215   3.427   7.921   8.260
10790SOL     OW37216   2.123   9.173   7.913
10790SOL    HW137217   2.073   9.244   7.873
10790SOL    HW237218   2.213   9.186   7.881
10791SOL     OW37219   2.985   8.801   9.080
10791SOL    HW137220   3.049   8.797   9.151
10791SOL    HW237221   2.935   8.720   9.088
10792SOL     OW37222   2.080   8.920   7.997
10792SOL    HW137223   2.098   9.009   7.968
10792SOL    HW237224   2.029   8.931   8.077
10793SOL     OW37225   2.149   8.521   8.402
10793SOL    HW137226   2.213   8.558   8.462
10793SOL    HW237227   2.072   8.577   8.412
10794SOL     OW37228   2.455   9.230   8.935
10794SOL    HW137229   2.360   9.232   8.947
10794SOL    HW237230   2.480   9.321   8.924
10795SOL     OW37231   3.455   7.625   8.861
10795SOL    HW137232   3.499   7.710   8.858
10795SOL    HW237233   3.412   7.623   8.947
10796SOL     OW37234   2.041   8.060   7.994
10796SOL    HW137235   1.973   8.006   8.035
10796SOL    HW237236   2.042   8.141   8.046
10797SOL     OW37237   3.691   9.332   7.845
10797SOL    HW137238   3.662   9.248   7.880
10797SOL    HW237239   3.666   9.396   7.911
10798SOL     OW37240   1.927   9.037   7.542
10798SOL    HW137241   1.898   8.946   7.547
10798SOL    HW237242   1.888   9.080   7.618
10799SOL     OW37243   3.552   8.372   7.975
10799SOL    HW137244   3.546   8.390   8.069
10799SOL    HW237245   3.523   8.454   7.934
10800SOL     OW37246   3.511   8.609   7.844
10800SOL    HW137247   3.479   8.670   7.777
10800SOL    HW237248   3.497   8.655   7.927
10801SOL     OW37249   1.971   8.245   8.999
10801SOL    HW137250   2.038   8.308   9.024
10801SOL    HW237251   1.896   8.299   8.975
10802SOL     OW37252   2.488   8.717   8.159
10802SOL    HW137253   2.438   8.766   8.223
10802SOL    HW237254   2.477   8.765   8.077
10803SOL     OW37255   3.116   8.540   8.919
10803SOL    HW137256   3.135   8.534   8.825
10803SOL    HW237257   3.193   8.583   8.956
10804SOL     OW37258   2.664   7.447   7.971
10804SOL    HW137259   2.717   7.522   7.943
10804SOL    HW237260   2.574   7.480   7.970
10805SOL     OW37261   1.977   8.367   8.671
10805SOL    HW137262   1.999   8.436   8.733
10805SOL    HW237263   1.882   8.355   8.681
10806SOL     OW37264   3.454   8.371   7.659
10806SOL    HW137265   3.373   8.325   7.682
10806SOL    HW237266   3.453   8.449   7.713
10807SOL     OW37267   3.075   9.295   9.137
10807SOL    HW137268   3.161   9.337   9.143
10807SOL    HW237269   3.041   9.324   9.052
10808SOL     OW37270   2.203   7.716   9.321
10808SOL    HW137271   2.243   7.795   9.357
10808SOL    HW237272   2.113   7.742   9.302
10809SOL     OW37273   3.321   8.855   8.437
10809SOL    HW137274   3.249   8.884   8.492
10809SOL    HW237275   3.288   8.776   8.394
10810SOL     OW37276   3.585   9.119   7.993
10810SOL    HW137277   3.493   9.094   8.002
10810SOL    HW237278   3.618   9.122   8.083
10811SOL     OW37279   3.171   7.815   8.403
10811SOL    HW137280   3.085   7.774   8.396
10811SOL    HW237281   3.217   7.764   8.469
10812SOL     OW37282   3.557   9.072   7.722
10812SOL    HW137283   3.573   9.076   7.816
10812SOL    HW237284   3.464   9.050   7.714
10813SOL     OW37285   2.669   8.002   8.867
10813SOL    HW137286   2.666   8.026   8.960
10813SOL    HW237287   2.616   7.922   8.861
10814SOL     OW37288   3.266   7.918   9.142
10814SOL    HW137289   3.271   7.958   9.229
10814SOL    HW237290   3.320   7.840   9.148
10815SOL     OW37291   2.770   8.336   9.025
10815SOL    HW137292   2.833   8.264   9.017
10815SOL    HW237293   2.777   8.382   8.941
10816SOL     OW37294   2.856   8.052   7.927
10816SOL    HW137295   2.914   8.091   7.994
10816SOL    HW237296   2.872   8.105   7.849
10817SOL     OW37297   2.031   8.302   8.156
10817SOL    HW137298   2.100   8.368   8.144
10817SOL    HW237299   1.951   8.353   8.169
10818SOL     OW37300   1.947   9.348   9.033
10818SOL    HW137301   1.956   9.316   9.122
10818SOL    HW237302   1.857   9.328   9.008
10819SOL     OW37303   2.831   7.703   7.620
10819SOL    HW137304   2.846   7.797   7.605
10819SOL    HW237305   2.736   7.694   7.625
10820SOL     OW37306   3.627   8.032   9.264
10820SOL    HW137307   3.595   8.099   9.205
10820SOL    HW237308   3.632   7.953   9.211
10821SOL     OW37309   3.187   8.591   7.981
10821SOL    HW137310   3.178   8.583   7.887
10821SOL    HW237311   3.107   8.635   8.010
10822SOL     OW37312   2.477   7.599   8.437
10822SOL    HW137313   2.461   7.605   8.531
10822SOL    HW237314   2.447   7.683   8.402
10823SOL     OW37315   2.826   8.886   7.968
10823SOL    HW137316   2.792   8.953   7.910
10823SOL    HW237317   2.777   8.897   8.050
10824SOL     OW37318   3.546   8.455   8.257
10824SOL    HW137319   3.548   8.539   8.210
10824SOL    HW237320   3.517   8.478   8.345
10825SOL     OW37321   3.068   8.952   8.858
10825SOL    HW137322   3.037   8.906   8.936
10825SOL    HW237323   2.991   8.999   8.826
10826SOL     OW37324   2.145   8.408   7.774
10826SOL    HW137325   2.209   8.390   7.705
10826SOL    HW237326   2.077   8.341   7.761
10827SOL     OW37327   3.417   8.212   8.185
10827SOL    HW137328   3.390   8.156   8.258
10827SOL    HW237329   3.464   8.285   8.227
10828SOL     OW37330   2.295   8.647   9.213
10828SOL    HW137331   2.302   8.671   9.121
10828SOL    HW237332   2.217   8.692   9.244
10829SOL     OW37333   2.031   7.785   8.982
10829SOL    HW137334   2.019   7.857   8.920
10829SOL    HW237335   1.942   7.761   9.009
10830SOL     OW37336   3.439   8.779   7.643
10830SOL    HW137337   3.405   8.864   7.671
10830SOL    HW237338   3.364   8.735   7.604
10831SOL     OW37339   2.366   9.218   7.800
10831SOL    HW137340   2.405   9.279   7.863
10831SOL    HW237341   2.439   9.192   7.744
10832SOL     OW37342   3.341   7.483   7.901
10832SOL    HW137343   3.323   7.554   7.838
10832SOL    HW237344   3.416   7.515   7.951
10833SOL     OW37345   2.063   9.265   8.711
10833SOL    HW137346   2.029   9.188   8.757
10833SOL    HW237347   1.991   9.295   8.657
10834SOL     OW37348   2.819   9.183   8.189
10834SOL    HW137349   2.899   9.147   8.226
10834SOL    HW237350   2.758   9.109   8.187
10835SOL     OW37351   3.382   7.642   9.133
10835SOL    HW137352   3.384   7.656   9.228
10835SOL    HW237353   3.307   7.584   9.119
10836SOL     OW37354   2.513   7.444   7.535
10836SOL    HW137355   2.533   7.527   7.578
10836SOL    HW237356   2.448   7.466   7.469
10837SOL     OW37357   2.637   7.679   9.219
10837SOL    HW137358   2.727   7.648   9.204
10837SOL    HW237359   2.638   7.712   9.309
10838SOL     OW37360   3.181   8.035   8.900
10838SOL    HW137361   3.220   8.011   8.984
10838SOL    HW237362   3.221   8.120   8.878
10839SOL     OW37363   2.729   8.727   8.305
10839SOL    HW137364   2.705   8.802   8.360
10839SOL    HW237365   2.657   8.721   8.242
10840SOL     OW37366   2.839   7.923   8.352
10840SOL    HW137367   2.802   7.913   8.264
10840SOL    HW237368   2.864   7.835   8.378
10841SOL     OW37369   2.389   7.519   7.960
10841SOL    HW137370   2.334   7.496   8.035
10841SOL    HW237371   2.332   7.570   7.902
10842SOL     OW37372   2.186   7.399   7.636
10842SOL    HW137373   2.198   7.494   7.640
10842SOL    HW237374   2.182   7.372   7.728
10843SOL     OW37375   2.851   7.647   7.900
10843SOL    HW137376   2.828   7.665   7.809
10843SOL    HW237377   2.944   7.669   7.905
10844SOL     OW37378   2.918   8.105   8.972
10844SOL    HW137379   2.859   8.071   8.905
10844SOL    HW237380   3.006   8.091   8.936
10845SOL     OW37381   3.072   9.066   8.262
10845SOL    HW137382   3.102   9.117   8.186
10845SOL    HW237383   3.120   9.101   8.336
10846SOL     OW37384   2.245   8.476   8.152
10846SOL    HW137385   2.230   8.497   8.244
10846SOL    HW237386   2.231   8.559   8.106
10847SOL     OW37387   3.152   9.243   8.041
10847SOL    HW137388   3.174   9.292   7.961
10847SOL    HW237389   3.134   9.311   8.106
10848SOL     OW37390   2.848   8.052   7.403
10848SOL    HW137391   2.777   8.115   7.409
10848SOL    HW237392   2.911   8.079   7.469
10849SOL     OW37393   2.028   8.018   8.850
10849SOL    HW137394   2.097   8.039   8.787
10849SOL    HW237395   1.996   8.102   8.881
10850SOL     OW37396   2.425   7.636   8.708
10850SOL    HW137397   2.459   7.632   8.797
10850SOL    HW237398   2.330   7.632   8.718
10851SOL     OW37399   2.773   7.850   8.089
10851SOL    HW137400   2.792   7.929   8.039
10851SOL    HW237401   2.784   7.778   8.026
10852SOL     OW37402   2.912   7.522   8.150
10852SOL    HW137403   2.903   7.580   8.075
10852SOL    HW237404   2.825   7.482   8.160
10853SOL     OW37405   3.241   8.631   8.296
10853SOL    HW137406   3.152   8.665   8.302
10853SOL    HW237407   3.252   8.609   8.204
10854SOL     OW37408   3.345   8.033   8.388
10854SOL    HW137409   3.273   7.970   8.397
10854SOL    HW237410   3.398   8.020   8.467
10855SOL     OW37411   3.737   8.235   7.835
10855SOL    HW137412   3.748   8.167   7.901
10855SOL    HW237413   3.662   8.286   7.866
10856SOL     OW37414   2.343   8.916   7.620
10856SOL    HW137415   2.263   8.907   7.673
10856SOL    HW237416   2.337   8.845   7.557
10857SOL     OW37417   3.560   8.694   8.111
10857SOL    HW137418   3.650   8.714   8.136
10857SOL    HW237419   3.509   8.770   8.139
10858SOL     OW37420   3.629   8.676   8.990
10858SOL    HW137421   3.720   8.647   8.994
10858SOL    HW237422   3.632   8.769   9.013
10859SOL     OW37423   2.875   8.743   8.709
10859SOL    HW137424   2.810   8.812   8.721
10859SOL    HW237425   2.924   8.742   8.791
10860SOL     OW37426   2.956   8.576   8.513
10860SOL    HW137427   2.919   8.634   8.580
10860SOL    HW237428   2.968   8.632   8.436
10861SOL     OW37429   3.446   8.546   8.505
10861SOL    HW137430   3.460   8.615   8.570
10861SOL    HW237431   3.365   8.571   8.460
10862SOL     OW37432   2.812   7.515   8.848
10862SOL    HW137433   2.822   7.506   8.754
10862SOL    HW237434   2.886   7.568   8.875
10863SOL     OW37435   2.829   8.578   9.162
10863SOL    HW137436   2.744   8.604   9.198
10863SOL    HW237437   2.807   8.515   9.094
10864SOL     OW37438   2.362   8.246   8.698
10864SOL    HW137439   2.391   8.271   8.786
10864SOL    HW237440   2.320   8.161   8.710
10865SOL     OW37441   3.124   7.850   8.710
10865SOL    HW137442   3.148   7.916   8.776
10865SOL    HW237443   3.080   7.900   8.641
10866SOL     OW37444   1.975   9.018   8.809
10866SOL    HW137445   1.931   9.000   8.726
10866SOL    HW237446   2.065   8.988   8.795
10867SOL     OW37447   2.207   8.674   7.969
10867SOL    HW137448   2.170   8.756   8.001
10867SOL    HW237449   2.188   8.674   7.875
10868SOL     OW37450   2.366   8.060   8.105
10868SOL    HW137451   2.294   8.055   8.167
10868SOL    HW237452   2.445   8.063   8.159
10869SOL     OW37453   3.092   8.921   8.584
10869SOL    HW137454   3.097   8.928   8.680
10869SOL    HW237455   3.000   8.903   8.566
10870SOL     OW37456   3.436   8.085   7.921
10870SOL    HW137457   3.442   8.136   8.001
10870SOL    HW237458   3.370   8.129   7.868
10871SOL     OW37459   2.238   8.945   8.767
10871SOL    HW137460   2.259   8.931   8.674
10871SOL    HW237461   2.290   9.022   8.792
10872SOL     OW37462   2.275   8.255   9.093
10872SOL    HW137463   2.350   8.271   9.036
10872SOL    HW237464   2.258   8.161   9.083
10873SOL     OW37465   3.515   8.273   9.166
10873SOL    HW137466   3.421   8.284   9.153
10873SOL    HW237467   3.554   8.312   9.088
10874SOL     OW37468   2.901   7.613   9.188
10874SOL    HW137469   2.933   7.700   9.164
10874SOL    HW237470   2.966   7.580   9.250
10875SOL     OW37471   2.338   7.490   9.233
10875SOL    HW137472   2.287   7.446   9.164
10875SOL    HW237473   2.292   7.572   9.248
10876SOL     OW37474   2.403   8.364   8.458
10876SOL    HW137475   2.466   8.436   8.461
10876SOL    HW237476   2.386   8.344   8.550
10877SOL     OW37477   3.212   8.267   8.462
10877SOL    HW137478   3.123   8.245   8.435
10877SOL    HW237479   3.265   8.192   8.433
10878SOL     OW37480   2.146   7.595   8.735
10878SOL    HW137481   2.068   7.619   8.785
10878SOL    HW237482   2.132   7.504   8.709
10879SOL     OW37483   1.850   8.710   8.716
10879SOL    HW137484   1.909   8.720   8.790
10879SOL    HW237485   1.844   8.797   8.678
10880SOL     OW37486   2.581   8.160   8.442
10880SOL    HW137487   2.650   8.208   8.398
10880SOL    HW237488   2.504   8.216   8.435
10881SOL     OW37489   2.168   7.483   8.118
10881SOL    HW137490   2.148   7.577   8.117
10881SOL    HW237491   2.168   7.460   8.211
10882SOL     OW37492   3.528   7.846   7.839
10882SOL    HW137493   3.452   7.795   7.811
10882SOL    HW237494   3.492   7.927   7.873
10883SOL     OW37495   2.967   8.163   8.392
10883SOL    HW137496   2.898   8.229   8.384
10883SOL    HW237497   2.921   8.079   8.382
10884SOL     OW37498   2.821   9.005   9.165
10884SOL    HW137499   2.764   9.060   9.111
10884SOL    HW237500   2.863   8.946   9.102
10885SOL     OW37501   3.724   8.941   9.017
10885SOL    HW137502   3.761   8.941   8.928
10885SOL    HW237503   3.800   8.945   9.075
10886SOL     OW37504   2.210   8.404   9.315
10886SOL    HW137505   2.258   8.484   9.290
10886SOL    HW237506   2.234   8.340   9.248
10887SOL     OW37507   3.201   8.255   7.428
10887SOL    HW137508   3.140   8.301   7.485
10887SOL    HW237509   3.203   8.305   7.347
10888SOL     OW37510   3.003   8.773   8.301
10888SOL    HW137511   2.908   8.767   8.294
10888SOL    HW237512   3.021   8.867   8.291
10889SOL     OW37513   2.333   7.855   8.455
10889SOL    HW137514   2.267   7.786   8.459
10889SOL    HW237515   2.294   7.922   8.399
10890SOL     OW37516   2.998   7.857   9.101
10890SOL    HW137517   2.949   7.938   9.091
10890SOL    HW237518   3.087   7.884   9.124
10891SOL     OW37519   3.039   7.667   8.903
10891SOL    HW137520   3.019   7.731   8.971
10891SOL    HW237521   3.068   7.719   8.828
10892SOL     OW37522   1.865   8.769   7.583
10892SOL    HW137523   1.775   8.788   7.559
10892SOL    HW237524   1.862   8.682   7.624
10893SOL     OW37525   2.801   8.253   8.676
10893SOL    HW137526   2.877   8.282   8.625
10893SOL    HW237527   2.766   8.334   8.714
10894SOL     OW37528   2.064   8.024   9.151
10894SOL    HW137529   2.056   7.950   9.092
10894SOL    HW237530   2.020   8.096   9.106
10895SOL     OW37531   3.254   8.331   9.101
10895SOL    HW137532   3.257   8.426   9.110
10895SOL    HW237533   3.245   8.315   9.007
10896SOL     OW37534   3.507   7.989   8.601
10896SOL    HW137535   3.512   7.984   8.696
10896SOL    HW237536   3.596   8.010   8.573
10897SOL     OW37537   2.081   8.999   9.166
10897SOL    HW137538   2.062   9.071   9.226
10897SOL    HW237539   2.084   8.922   9.222
10898SOL     OW37540   2.547   7.876   8.624
10898SOL    HW137541   2.524   7.792   8.662
10898SOL    HW237542   2.489   7.885   8.548
10899SOL     OW37543   2.004   8.557   8.931
10899SOL    HW137544   2.010   8.550   9.027
10899SOL    HW237545   1.912   8.536   8.912
10900SOL     OW37546   3.158   8.455   8.652
10900SOL    HW137547   3.192   8.398   8.583
10900SOL    HW237548   3.089   8.505   8.609
10901SOL     OW37549   3.237   8.219   7.770
10901SOL    HW137550   3.227   8.264   7.854
10901SOL    HW237551   3.147   8.209   7.738
10902SOL     OW37552   3.222   9.149   8.495
10902SOL    HW137553   3.280   9.177   8.566
10902SOL    HW237554   3.168   9.080   8.533
10903SOL     OW37555   1.944   8.688   8.440
10903SOL    HW137556   1.892   8.695   8.520
10903SOL    HW237557   1.980   8.776   8.427
10904SOL     OW37558   2.506   9.117   9.177
10904SOL    HW137559   2.450   9.183   9.217
10904SOL    HW237560   2.514   9.144   9.086
10905SOL     OW37561   3.580   7.559   8.027
10905SOL    HW137562   3.629   7.588   7.950
10905SOL    HW237563   3.583   7.633   8.087
10906SOL     OW37564   3.320   9.039   7.973
10906SOL    HW137565   3.306   9.022   7.880
10906SOL    HW237566   3.254   9.103   7.997
10907SOL     OW37567   1.996   9.243   9.287
10907SOL    HW137568   1.952   9.177   9.340
10907SOL    HW237569   2.047   9.295   9.349
10908SOL     OW37570   3.217   8.320   8.022
10908SOL    HW137571   3.288   8.306   8.084
10908SOL    HW237572   3.204   8.415   8.021
10909SOL     OW37573   2.655   8.706   8.934
10909SOL    HW137574   2.601   8.742   9.004
10909SOL    HW237575   2.671   8.779   8.875
10910SOL     OW37576   2.531   9.113   7.594
10910SOL    HW137577   2.537   9.123   7.499
10910SOL    HW237578   2.466   9.044   7.607
10911SOL     OW37579   3.709   7.614   8.436
10911SOL    HW137580   3.734   7.524   8.411
10911SOL    HW237581   3.619   7.623   8.406
10912SOL     OW37582   2.124   7.765   8.124
10912SOL    HW137583   2.033   7.777   8.097
10912SOL    HW237584   2.132   7.815   8.205
10913SOL     OW37585   3.040   9.000   7.342
10913SOL    HW137586   3.071   9.021   7.430
10913SOL    HW237587   2.946   9.015   7.346
10914SOL     OW37588   2.684   8.483   8.778
10914SOL    HW137589   2.677   8.517   8.689
10914SOL    HW237590   2.679   8.560   8.834
10915SOL     OW37591   2.957   8.225   7.724
10915SOL    HW137592   2.965   8.286   7.650
10915SOL    HW237593   2.924   8.278   7.796
10916SOL     OW37594   3.363   9.055   7.428
10916SOL    HW137595   3.350   9.024   7.517
10916SOL    HW237596   3.277   9.087   7.400
10917SOL     OW37597   2.239   8.738   8.956
10917SOL    HW137598   2.242   8.807   8.890
10917SOL    HW237599   2.168   8.680   8.929
10918SOL     OW37600   3.493   8.719   8.730
10918SOL    HW137601   3.537   8.703   8.814
10918SOL    HW237602   3.432   8.791   8.749
10919SOL     OW37603   2.900   8.469   8.156
10919SOL    HW137604   2.866   8.558   8.147
10919SOL    HW237605   2.894   8.432   8.068
10920SOL     OW37606   2.942   7.667   8.393
10920SOL    HW137607   2.932   7.617   8.312
10920SOL    HW237608   2.907   7.610   8.461
10921SOL     OW37609   2.472   8.889   7.936
10921SOL    HW137610   2.513   8.840   7.865
10921SOL    HW237611   2.413   8.950   7.892
10922SOL     OW37612   3.631   7.837   8.859
10922SOL    HW137613   3.686   7.916   8.855
10922SOL    HW237614   3.673   7.775   8.800
10923SOL     OW37615   2.096   8.823   7.738
10923SOL    HW137616   2.007   8.821   7.702
10923SOL    HW237617   2.086   8.859   7.825
10924SOL     OW37618   1.975   8.512   9.207
10924SOL    HW137619   1.896   8.479   9.250
10924SOL    HW237620   2.047   8.464   9.248
10925SOL     OW37621   2.565   7.609   8.954
10925SOL    HW137622   2.654   7.591   8.924
10925SOL    HW237623   2.577   7.638   9.045
10926SOL     OW37624   1.918   7.825   7.427
10926SOL    HW137625   1.890   7.859   7.511
10926SOL    HW237626   1.974   7.894   7.390
10927SOL     OW37627   3.280   8.279   8.828
10927SOL    HW137628   3.221   8.339   8.782
10927SOL    HW237629   3.367   8.298   8.791
10928SOL     OW37630   1.920   7.604   7.822
10928SOL    HW137631   1.904   7.667   7.752
10928SOL    HW237632   2.014   7.610   7.838
10929SOL     OW37633   2.503   8.310   8.927
10929SOL    HW137634   2.532   8.387   8.878
10929SOL    HW237635   2.575   8.291   8.987
10930SOL     OW37636   3.500   9.190   8.428
10930SOL    HW137637   3.405   9.186   8.417
10930SOL    HW237638   3.513   9.185   8.523
10931SOL     OW37639   2.650   8.039   9.139
10931SOL    HW137640   2.691   8.106   9.194
10931SOL    HW237641   2.609   7.979   9.202
10932SOL     OW37642   3.350   8.598   9.078
10932SOL    HW137643   3.329   8.632   9.165
10932SOL    HW237644   3.433   8.639   9.055
10933SOL     OW37645   2.191   9.203   9.008
10933SOL    HW137646   2.114   9.254   8.984
10933SOL    HW237647   2.156   9.121   9.043
10934SOL     OW37648   3.514   8.348   8.693
10934SOL    HW137649   3.546   8.284   8.629
10934SOL    HW237650   3.487   8.423   8.641
10935SOL     OW37651   3.115   7.704   7.919
10935SOL    HW137652   3.184   7.711   7.853
10935SOL    HW237653   3.136   7.772   7.983
10936SOL     OW37654   3.632   7.788   9.137
10936SOL    HW137655   3.641   7.804   9.043
10936SOL    HW237656   3.557   7.728   9.144
10937SOL     OW37657   3.629   8.392   8.946
10937SOL    HW137658   3.616   8.486   8.958
10937SOL    HW237659   3.597   8.374   8.858
10938SOL     OW37660   2.739   8.831   7.538
10938SOL    HW137661   2.661   8.822   7.593
10938SOL    HW237662   2.725   8.913   7.490
10939SOL     OW37663   2.766   8.344   8.359
10939SOL    HW137664   2.813   8.389   8.289
10939SOL    HW237665   2.729   8.415   8.412
10940SOL     OW37666   3.013   8.414   7.538
10940SOL    HW137667   2.962   8.471   7.480
10940SOL    HW237668   3.059   8.474   7.597
10941SOL     OW37669   3.694   8.986   8.282
10941SOL    HW137670   3.607   8.978   8.242
10941SOL    HW237671   3.680   8.965   8.374
10942SOL     OW37672   2.061   8.755   9.307
10942SOL    HW137673   2.024   8.678   9.263
10942SOL    HW237674   2.001   8.773   9.379
10943SOL     OW37675   1.876   8.720   8.179
10943SOL    HW137676   1.900   8.700   8.270
10943SOL    HW237677   1.894   8.814   8.170
10944SOL     OW37678   2.488   8.848   9.106
10944SOL    HW137679   2.415   8.846   9.044
10944SOL    HW237680   2.500   8.940   9.127
10945SOL     OW37681   3.732   7.632   8.706
10945SOL    HW137682   3.825   7.648   8.722
10945SOL    HW237683   3.723   7.636   8.611
10946SOL     OW37684   3.591   8.847   8.500
10946SOL    HW137685   3.501   8.868   8.473
10946SOL    HW237686   3.582   8.816   8.590
10947SOL     OW37687   2.268   7.991   8.706
10947SOL    HW137688   2.282   7.931   8.780
10947SOL    HW237689   2.286   7.938   8.629
10948SOL     OW37690   2.633   8.989   8.146
10948SOL    HW137691   2.565   8.965   8.083
10948SOL    HW237692   2.586   9.007   8.227
10949SOL     OW37693   3.315   7.680   8.614
10949SOL    HW137694   3.366   7.648   8.688
10949SOL    HW237695   3.250   7.738   8.652
10950SOL     OW37696   2.872   7.463   8.578
10950SOL    HW137697   2.810   7.422   8.517
10950SOL    HW237698   2.954   7.415   8.563
10951SOL     OW37699   2.589   8.720   7.741
10951SOL    HW137700   2.564   8.647   7.683
10951SOL    HW237701   2.647   8.679   7.806
10952SOL     OW37702   3.316   7.413   7.573
10952SOL    HW137703   3.352   7.502   7.568
10952SOL    HW237704   3.226   7.426   7.603
10953SOL     OW37705   3.170   7.885   8.123
10953SOL    HW137706   3.127   7.969   8.106
10953SOL    HW237707   3.151   7.867   8.215
10954SOL     OW37708   3.440   7.623   8.371
10954SOL    HW137709   3.398   7.653   8.452
10954SOL    HW237710   3.427   7.695   8.310
10955SOL     OW37711   1.900   8.529   7.712
10955SOL    HW137712   1.989   8.528   7.747
10955SOL    HW237713   1.876   8.437   7.705
10956SOL     OW37714   2.731   9.065   7.786
10956SOL    HW137715   2.669   9.083   7.715
10956SOL    HW237716   2.731   9.144   7.839
10957SOL     OW37717   2.076   7.994   9.422
10957SOL    HW137718   1.991   8.019   9.459
10957SOL    HW237719   2.071   8.018   9.330
10958SOL     OW37720   3.518   8.077   9.505
10958SOL    HW137721   3.563   8.046   9.426
10958SOL    HW237722   3.511   8.000   9.561
10959SOL     OW37723   2.106   9.183   9.743
10959SOL    HW137724   2.114   9.255   9.805
10959SOL    HW237725   2.181   9.194   9.684
10960SOL     OW37726   2.084   8.941   9.871
10960SOL    HW137727   2.090   9.026   9.827
10960SOL    HW237728   2.031   8.959   9.949
10961SOL     OW37729   2.548   8.409   9.450
10961SOL    HW137730   2.550   8.483   9.389
10961SOL    HW237731   2.551   8.449   9.537
10962SOL     OW37732   1.923   8.123   9.892
10962SOL    HW137733   1.832   8.095   9.901
10962SOL    HW237734   1.936   8.186   9.964
10963SOL     OW37735   3.703   9.185   9.689
10963SOL    HW137736   3.784   9.164   9.735
10963SOL    HW237737   3.715   9.276   9.660
10964SOL     OW37738   1.915   9.031   9.438
10964SOL    HW137739   1.876   8.945   9.455
10964SOL    HW237740   1.886   9.085   9.511
10965SOL     OW37741   3.582   8.257   9.912
10965SOL    HW137742   3.668   8.265   9.952
10965SOL    HW237743   3.572   8.337   9.860
10966SOL     OW37744   3.601   8.513   9.767
10966SOL    HW137745   3.665   8.453   9.728
10966SOL    HW237746   3.652   8.567   9.827
10967SOL     OW37747   2.549   8.792   9.944
10967SOL    HW137748   2.589   8.757   0.023
10967SOL    HW237749   2.460   8.816   9.971
10968SOL     OW37750   2.680   7.479   9.794
10968SOL    HW137751   2.724   7.562   9.774
10968SOL    HW237752   2.589   7.504   9.811
10969SOL     OW37753   3.431   8.509   9.554
10969SOL    HW137754   3.342   8.508   9.591
10969SOL    HW237755   3.488   8.520   9.630
10970SOL     OW37756   2.457   8.165   9.554
10970SOL    HW137757   2.478   8.249   9.512
10970SOL    HW237758   2.396   8.188   9.624
10971SOL     OW37759   3.444   9.087   9.610
10971SOL    HW137760   3.527   9.131   9.626
10971SOL    HW237761   3.425   9.102   9.518
10972SOL     OW37762   2.879   8.112   9.746
10972SOL    HW137763   2.878   8.108   9.842
10972SOL    HW237764   2.800   8.064   9.719
10973SOL     OW37765   1.943   8.325   0.092
10973SOL    HW137766   2.027   8.329   0.139
10973SOL    HW237767   1.937   8.409   0.046
10974SOL     OW37768   2.669   7.738   9.500
10974SOL    HW137769   2.648   7.829   9.521
10974SOL    HW237770   2.731   7.711   9.568
10975SOL     OW37771   3.195   8.539   9.698
10975SOL    HW137772   3.212   8.527   9.791
10975SOL    HW237773   3.151   8.624   9.693
10976SOL     OW37774   2.853   8.899   9.845
10976SOL    HW137775   2.885   8.988   9.854
10976SOL    HW237776   2.852   8.864   9.935
10977SOL     OW37777   2.255   9.287   0.152
10977SOL    HW137778   2.264   9.219   0.220
10977SOL    HW237779   2.211   9.359   0.197
10978SOL     OW37780   2.170   8.379   9.592
10978SOL    HW137781   2.190   8.387   9.499
10978SOL    HW237782   2.091   8.325   9.595
10979SOL     OW37783   3.081   9.233   9.518
10979SOL    HW137784   2.995   9.247   9.558
10979SOL    HW237785   3.066   9.168   9.450
10980SOL     OW37786   3.496   8.842   9.376
10980SOL    HW137787   3.465   8.932   9.363
10980SOL    HW237788   3.421   8.788   9.353
10981SOL     OW37789   2.360   9.256   9.627
10981SOL    HW137790   2.383   9.309   9.704
10981SOL    HW237791   2.415   9.292   9.557
10982SOL     OW37792   3.282   7.611   9.753
10982SOL    HW137793   3.270   7.575   9.665
10982SOL    HW237794   3.377   7.619   9.763
10983SOL     OW37795   2.281   8.155   9.781
10983SOL    HW137796   2.233   8.079   9.814
10983SOL    HW237797   2.213   8.218   9.758
10984SOL     OW37798   2.471   7.530   9.478
10984SOL    HW137799   2.550   7.584   9.469
10984SOL    HW237800   2.439   7.521   9.388
10985SOL     OW37801   2.404   7.544   9.852
10985SOL    HW137802   2.316   7.540   9.889
10985SOL    HW237803   2.403   7.621   9.795
10986SOL     OW37804   3.289   8.667   9.340
10986SOL    HW137805   3.321   8.613   9.411
10986SOL    HW237806   3.206   8.703   9.372
10987SOL     OW37807   2.151   7.508   9.490
10987SOL    HW137808   2.172   7.584   9.436
10987SOL    HW237809   2.235   7.476   9.521
10988SOL     OW37810   2.799   7.725   9.765
10988SOL    HW137811   2.758   7.793   9.819
10988SOL    HW237812   2.893   7.743   9.771
10989SOL     OW37813   2.296   8.546   0.053
10989SOL    HW137814   2.254   8.621   0.096
10989SOL    HW237815   2.289   8.565   9.959
10990SOL     OW37816   3.170   9.284   9.928
10990SOL    HW137817   3.195   9.336   9.852
10990SOL    HW237818   3.075   9.283   9.925
10991SOL     OW37819   2.682   7.923   9.951
10991SOL    HW137820   2.611   7.987   9.949
10991SOL    HW237821   2.759   7.973   9.979
10992SOL     OW37822   2.306   8.852   9.485
10992SOL    HW137823   2.235   8.821   9.541
10992SOL    HW237824   2.287   8.816   9.398
10993SOL     OW37825   3.266   8.024   9.397
10993SOL    HW137826   3.204   8.006   9.468
10993SOL    HW237827   3.346   8.052   9.442
10994SOL     OW37828   2.400   7.737   9.663
10994SOL    HW137829   2.430   7.674   9.597
10994SOL    HW237830   2.368   7.811   9.612
10995SOL     OW37831   2.550   8.503   9.716
10995SOL    HW137832   2.462   8.540   9.721
10995SOL    HW237833   2.577   8.494   9.807
10996SOL     OW37834   2.278   8.571   9.762
10996SOL    HW137835   2.230   8.647   9.731
10996SOL    HW237836   2.246   8.498   9.709
10997SOL     OW37837   3.080   8.794   9.703
10997SOL    HW137838   3.146   8.859   9.729
10997SOL    HW237839   3.000   8.824   9.745
10998SOL     OW37840   3.462   8.016   9.851
10998SOL    HW137841   3.387   8.025   9.909
10998SOL    HW237842   3.509   8.099   9.859
10999SOL     OW37843   3.081   7.985   9.599
10999SOL    HW137844   3.081   7.907   9.654
10999SOL    HW237845   3.013   8.041   9.637
11000SOL     OW37846   2.152   7.514   9.961
11000SOL    HW137847   2.098   7.593   9.963
11000SOL    HW237848   2.164   7.491   0.053
11001SOL     OW37849   3.462   7.843   9.638
11001SOL    HW137850   3.505   7.766   9.676
11001SOL    HW237851   3.452   7.903   9.712
11002SOL     OW37852   3.376   7.693   9.399
11002SOL    HW137853   3.330   7.623   9.446
11002SOL    HW237854   3.400   7.756   9.468
11003SOL     OW37855   3.086   8.188   9.271
11003SOL    HW137856   3.153   8.132   9.309
11003SOL    HW237857   3.133   8.244   9.209
11004SOL     OW37858   1.869   8.754   9.507
11004SOL    HW137859   1.783   8.779   9.473
11004SOL    HW237860   1.855   8.665   9.542
11005SOL     OW37861   2.646   7.988   9.645
11005SOL    HW137862   2.596   7.961   9.722
11005SOL    HW237863   2.591   8.055   9.603
11006SOL     OW37864   2.330   7.930   9.481
11006SOL    HW137865   2.379   8.011   9.494
11006SOL    HW237866   2.240   7.958   9.470
11007SOL     OW37867   3.110   8.298   9.592
11007SOL    HW137868   3.137   8.239   9.662
11007SOL    HW237869   3.136   8.385   9.622
11008SOL     OW37870   3.570   7.617   9.754
11008SOL    HW137871   3.640   7.609   9.690
11008SOL    HW237872   3.612   7.601   9.838
11009SOL     OW37873   3.272   8.985   9.789
11009SOL    HW137874   3.329   9.013   9.717
11009SOL    HW237875   3.223   9.063   9.813
11010SOL     OW37876   2.549   8.990   9.419
11010SOL    HW137877   2.542   9.036   9.335
11010SOL    HW237878   2.462   8.953   9.433
11011SOL     OW37879   3.061   9.076   9.293
11011SOL    HW137880   2.977   9.038   9.267
11011SOL    HW237881   3.073   9.151   9.235
11012SOL     OW37882   2.811   8.346   9.603
11012SOL    HW137883   2.742   8.400   9.642
11012SOL    HW237884   2.833   8.283   9.672
11013SOL     OW37885   3.353   9.082   9.332
11013SOL    HW137886   3.258   9.070   9.326
11013SOL    HW237887   3.372   9.153   9.271
11014SOL     OW37888   2.425   8.986   9.698
11014SOL    HW137889   2.377   8.941   9.628
11014SOL    HW237890   2.405   9.079   9.685
11015SOL     OW37891   2.104   8.766   9.662
11015SOL    HW137892   2.022   8.776   9.614
11015SOL    HW237893   2.098   8.828   9.734
11016SOL     OW37894   1.912   7.756   9.312
11016SOL    HW137895   1.859   7.757   9.233
11016SOL    HW237896   1.910   7.847   9.343
11017SOL     OW37897   1.890   7.585   9.541
11017SOL    HW137898   1.875   7.641   9.465
11017SOL    HW237899   1.983   7.565   9.540
11018SOL     OW37900   3.037   8.748   9.430
11018SOL    HW137901   2.948   8.776   9.408
11018SOL    HW237902   3.050   8.777   9.520
11019SOL     OW37903   3.073   7.788   9.799
11019SOL    HW137904   3.144   7.727   9.781
11019SOL    HW237905   3.106   7.842   9.872
11020SOL     OW37906   2.509   8.134   9.941
11020SOL    HW137907   2.509   8.207   0.004
11020SOL    HW237908   2.432   8.150   9.887
11021SOL     OW37909   2.769   8.832   9.370
11021SOL    HW137910   2.700   8.883   9.412
11021SOL    HW237911   2.793   8.884   9.293
11022SOL     OW37912   3.016   8.491   9.334
11022SOL    HW137913   2.959   8.518   9.262
11022SOL    HW237914   3.044   8.573   9.375
11023SOL     OW37915   1.930   8.573   9.974
11023SOL    HW137916   1.899   8.629   0.045
11023SOL    HW237917   1.979   8.632   9.917
11024SOL     OW37918   2.244   7.895   9.911
11024SOL    HW137919   2.325   7.867   9.868
11024SOL    HW237920   2.271   7.921   9.999
11025SOL     OW37921   3.252   7.472   9.518
11025SOL    HW137922   3.308   7.403   9.552
11025SOL    HW237923   3.164   7.435   9.519
11026SOL     OW37924   1.887   8.512   9.646
11026SOL    HW137925   1.980   8.530   9.661
11026SOL    HW237926   1.883   8.418   9.630
11027SOL     OW37927   2.717   9.073   9.627
11027SOL    HW137928   2.666   9.076   9.545
11027SOL    HW237929   2.693   9.154   9.672
11028SOL     OW37930   2.031   9.633   1.035
11028SOL    HW137931   2.074   9.578   1.101
11028SOL    HW237932   1.970   9.574   0.991
11029SOL     OW37933   1.890   9.669   0.656
11029SOL    HW137934   1.822   9.699   0.716
11029SOL    HW237935   1.848   9.603   0.601
11030SOL     OW37936   3.592   9.927   0.137
11030SOL    HW137937   3.507   9.946   0.096
11030SOL    HW237938   3.573   9.858   0.201
11031SOL     OW37939   2.340   9.645   1.503
11031SOL    HW137940   2.374   9.696   1.576
11031SOL    HW237941   2.247   9.635   1.523
11032SOL     OW37942   3.454   9.687   0.766
11032SOL    HW137943   3.374   9.699   0.716
11032SOL    HW237944   3.448   9.750   0.837
11033SOL     OW37945   3.454   9.472   1.457
11033SOL    HW137946   3.443   9.559   1.418
11033SOL    HW237947   3.418   9.481   1.546
11034SOL     OW37948   2.030   9.870   0.509
11034SOL    HW137949   1.979   9.801   0.551
11034SOL    HW237950   2.067   9.919   0.582
11035SOL     OW37951   2.702   9.487   0.554
11035SOL    HW137952   2.679   9.578   0.574
11035SOL    HW237953   2.619   9.441   0.551
11036SOL     OW37954   2.154   9.648   1.762
11036SOL    HW137955   2.119   9.731   1.728
11036SOL    HW237956   2.091   9.620   1.828
11037SOL     OW37957   3.144   9.693   0.946
11037SOL    HW137958   3.055   9.656   0.948
11037SOL    HW237959   3.191   9.644   1.014
11038SOL     OW37960   2.684   9.808   1.463
11038SOL    HW137961   2.631   9.790   1.541
11038SOL    HW237962   2.624   9.798   1.390
11039SOL     OW37963   3.282   9.788   1.724
11039SOL    HW137964   3.189   9.780   1.701
11039SOL    HW237965   3.316   9.699   1.714
11040SOL     OW37966   2.850   9.766   1.245
11040SOL    HW137967   2.822   9.778   1.335
11040SOL    HW237968   2.770   9.745   1.197
11041SOL     OW37969   2.848   9.911   0.350
11041SOL    HW137970   2.835   9.968   0.426
11041SOL    HW237971   2.769   9.923   0.297
11042SOL     OW37972   2.699   9.673   0.218
11042SOL    HW137973   2.651   9.747   0.256
11042SOL    HW237974   2.728   9.705   0.132
11043SOL     OW37975   3.523   9.904   1.795
11043SOL    HW137976   3.498   9.991   1.825
11043SOL    HW237977   3.440   9.863   1.770
11044SOL     OW37978   2.351   9.473   0.867
11044SOL    HW137979   2.380   9.538   0.931
11044SOL    HW237980   2.289   9.519   0.811
11045SOL     OW37981   3.353  -0.000   0.741
11045SOL    HW137982   3.359   9.953   0.824
11045SOL    HW237983   3.386   0.088   0.760
11046SOL     OW37984   2.068   9.574   1.477
11046SOL    HW137985   1.983   9.618   1.473
11046SOL    HW237986   2.053   9.497   1.532
11047SOL     OW37987   3.378   9.502   0.425
11047SOL    HW137988   3.350   9.428   0.370
11047SOL    HW237989   3.463   9.475   0.460
11048SOL     OW37990   3.354   9.520   1.715
11048SOL    HW137991   3.396   9.520   1.801
11048SOL    HW237992   3.268   9.482   1.729
11049SOL     OW37993   3.234   9.871   1.391
11049SOL    HW137994   3.316   9.822   1.384
11049SOL    HW237995   3.250   9.934   1.461
11050SOL     OW37996   2.788   9.793   0.839
11050SOL    HW137997   2.735   9.760   0.766
11050SOL    HW237998   2.825   9.715   0.879
11051SOL     OW37999   2.446   9.364   0.547
11051SOL    HW138000   2.421   9.339   0.637
11051SOL    HW238001   2.377   9.424   0.519
11052SOL     OW38002   2.920   9.934   1.542
11052SOL    HW138003   2.833   9.910   1.510
11052SOL    HW238004   2.941   0.014   1.494
11053SOL     OW38005   2.949   9.939   0.007
11053SOL    HW138006   2.881   9.872   9.996
11053SOL    HW238007   2.904   0.011   0.051
11054SOL     OW38008   1.943   9.923   1.413
11054SOL    HW138009   2.032   9.914   1.380
11054SOL    HW238010   1.906   9.996   1.364
11055SOL     OW38011   2.417   9.539   1.144
11055SOL    HW138012   2.439   9.446   1.136
11055SOL    HW238013   2.328   9.539   1.179
11056SOL     OW38014   2.648   9.760   0.590
11056SOL    HW138015   2.703   9.832   0.558
11056SOL    HW238016   2.560   9.796   0.593
11057SOL     OW38017   2.888   9.353   0.725
11057SOL    HW138018   2.821   9.391   0.669
11057SOL    HW238019   2.841   9.288   0.778
11058SOL     OW38020   3.374   9.859   0.971
11058SOL    HW138021   3.291   9.816   0.991
11058SOL    HW238022   3.431   9.837   1.045
11059SOL     OW38023   3.098   9.656   1.296
11059SOL    HW138024   3.139   9.735   1.331
11059SOL    HW238025   3.012   9.685   1.265
11060SOL     OW38026   2.432   9.797   0.863
11060SOL    HW138027   2.433   9.835   0.776
11060SOL    HW238028   2.497   9.849   0.912
11061SOL     OW38029   3.464   9.947   0.494
11061SOL    HW138030   3.420   9.959   0.579
11061SOL    HW238031   3.557   9.961   0.513
11062SOL     OW38032   3.097   9.450   1.839
11062SOL    HW138033   3.038   9.519   1.808
11062SOL    HW238034   3.082   9.377   1.778
11063SOL     OW38035   3.108   9.838   0.264
11063SOL    HW138036   3.129   9.777   0.334
11063SOL    HW238037   3.021   9.871   0.287
11064SOL     OW38038   2.161   9.492   1.233
11064SOL    HW138039   2.132   9.527   1.318
11064SOL    HW238040   2.133   9.401   1.233
11065SOL     OW38041   2.601   9.972   0.997
11065SOL    HW138042   2.670   9.973   0.930
11065SOL    HW238043   2.548   0.048   0.977
11066SOL     OW38044   2.131   9.314   0.607
11066SOL    HW138045   2.162   9.384   0.549
11066SOL    HW238046   2.112   9.358   0.690
11067SOL     OW38047   3.493   9.732   0.317
11067SOL    HW138048   3.457   9.657   0.364
11067SOL    HW238049   3.480   9.806   0.377
11068SOL     OW38050   3.520   9.540   0.104
11068SOL    HW138051   3.447   9.483   0.126
11068SOL    HW238052   3.515   9.611   0.168
11069SOL     OW38053   2.167   0.081   0.942
11069SOL    HW138054   2.254   0.121   0.944
11069SOL    HW238055   2.179   9.995   0.982
11070SOL     OW38056   2.223   9.827   1.040
11070SOL    HW138057   2.155   9.761   1.025
11070SOL    HW238058   2.291   9.807   0.976
11071SOL     OW38059   3.012   9.719   1.684
11071SOL    HW138060   2.973   9.748   1.766
11071SOL    HW238061   2.984   9.783   1.620
11072SOL     OW38062   3.067   9.493   1.521
11072SOL    HW138063   3.043   9.567   1.577
11072SOL    HW238064   3.082   9.532   1.435
11073SOL     OW38065   1.841   9.790   1.163
11073SOL    HW138066   1.897   9.734   1.110
11073SOL    HW238067   1.897   9.863   1.188
11074SOL     OW38068   2.025   9.879   1.679
11074SOL    HW138069   1.991   9.895   1.591
11074SOL    HW238070   1.952   9.903   1.737
11075SOL     OW38071   2.573   9.924   0.242
11075SOL    HW138072   2.523   9.889   0.168
11075SOL    HW238073   2.524   0.001   0.270
11076SOL     OW38074   2.573   9.764   1.202
11076SOL    HW138075   2.515   9.691   1.180
11076SOL    HW238076   2.558   9.829   1.134
11077SOL     OW38077   3.651   9.456   0.474
11077SOL    HW138078   3.710   9.442   0.400
11077SOL    HW238079   3.641   9.370   0.514
11078SOL     OW38080   3.697   9.421   1.062
11078SOL    HW138081   3.741   9.358   1.005
11078SOL    HW238082   3.617   9.444   1.014
11079SOL     OW38083   2.160   9.590   0.708
11079SOL    HW138084   2.188   9.583   0.616
11079SOL    HW238085   2.072   9.627   0.703
11080SOL     OW38086   2.903   9.550   0.928
11080SOL    HW138087   2.914   9.493   0.852
11080SOL    HW238088   2.893   9.491   1.002
11081SOL     OW38089   1.993   9.574   0.057
11081SOL    HW138090   1.992   9.664   0.024
11081SOL    HW238091   2.055   9.576   0.131
11082SOL     OW38092   1.905   9.432   0.285
11082SOL    HW138093   1.888   9.473   0.201
11082SOL    HW238094   1.996   9.453   0.304
11083SOL     OW38095   2.523   9.753   1.685
11083SOL    HW138096   2.487   9.829   1.730
11083SOL    HW238097   2.545   9.692   1.755
11084SOL     OW38098   3.135   9.635   0.452
11084SOL    HW138099   3.214   9.581   0.445
11084SOL    HW238100   3.146   9.682   0.534
11085SOL     OW38101   3.011   0.291   0.049
11085SOL    HW138102   2.933   0.316   0.098
11085SOL    HW238103   3.075   0.268   0.117
11086SOL     OW38104   3.706   9.455   1.337
11086SOL    HW138105   3.615   9.464   1.367
11086SOL    HW238106   3.700   9.451   1.241
11087SOL     OW38107   2.197   9.891   1.307
11087SOL    HW138108   2.248   9.826   1.355
11087SOL    HW238109   2.211   9.870   1.215
11088SOL     OW38110   3.319   9.594   1.140
11088SOL    HW138111   3.390   9.650   1.171
11088SOL    HW238112   3.252   9.600   1.207
11089SOL     OW38113   2.890   9.307   1.070
11089SOL    HW138114   2.832   9.257   1.012
11089SOL    HW238115   2.973   9.259   1.068
11090SOL     OW38116   3.286   9.353   0.188
11090SOL    HW138117   3.243   9.350   0.102
11090SOL    HW238118   3.214   9.341   0.250
11091SOL     OW38119   3.195   9.770   0.684
11091SOL    HW138120   3.221   9.862   0.690
11091SOL    HW238121   3.165   9.747   0.773
11092SOL     OW38122   3.453   9.466   0.938
11092SOL    HW138123   3.405   9.511   1.007
11092SOL    HW238124   3.457   9.529   0.866
11093SOL     OW38125   2.055   9.625   2.858
11093SOL    HW138126   2.092   9.578   2.932
11093SOL    HW238127   1.970   9.583   2.843
11094SOL     OW38128   1.875   9.698   2.501
11094SOL    HW138129   1.792   9.726   2.540
11094SOL    HW238130   1.850   9.634   2.434
11095SOL     OW38131   3.607   9.776   2.034
11095SOL    HW138132   3.571   9.820   1.957
11095SOL    HW238133   3.572   9.825   2.108
11096SOL     OW38134   3.472   9.779   2.655
11096SOL    HW138135   3.427   9.834   2.592
11096SOL    HW238136   3.454   9.818   2.740
11097SOL     OW38137   3.493   9.405   3.350
11097SOL    HW138138   3.519   9.487   3.309
11097SOL    HW238139   3.420   9.428   3.407
11098SOL     OW38140   1.967   9.962   2.555
11098SOL    HW138141   1.937   9.874   2.530
11098SOL    HW238142   1.911   0.021   2.504
11099SOL     OW38143   2.666   9.331   2.354
11099SOL    HW138144   2.701   9.411   2.316
11099SOL    HW238145   2.571   9.343   2.354
11100SOL     OW38146   3.138   9.721   2.820
11100SOL    HW138147   3.047   9.694   2.806
11100SOL    HW238148   3.173   9.656   2.882
11101SOL     OW38149   2.718   9.804   3.362
11101SOL    HW138150   2.668   9.777   3.439
11101SOL    HW238151   2.655   9.798   3.290
11102SOL     OW38152   3.255   9.797   3.540
11102SOL    HW138153   3.161   9.794   3.561
11102SOL    HW238154   3.287   9.709   3.560
11103SOL     OW38155   2.884   9.739   3.150
11103SOL    HW138156   2.842   9.761   3.234
11103SOL    HW238157   2.812   9.732   3.088
11104SOL     OW38158   2.928   0.005   2.267
11104SOL    HW138159   2.919   0.093   2.303
11104SOL    HW238160   2.838   9.978   2.246
11105SOL     OW38161   2.743   9.673   2.042
11105SOL    HW138162   2.797   9.723   1.982
11105SOL    HW238163   2.680   9.627   1.986
11106SOL     OW38164   3.561   9.894   3.680
11106SOL    HW138165   3.477   9.932   3.656
11106SOL    HW238166   3.575   9.823   3.617
11107SOL     OW38167   2.462   9.542   2.748
11107SOL    HW138168   2.468   9.636   2.764
11107SOL    HW238169   2.432   9.535   2.657
11108SOL     OW38170   3.332   0.001   2.556
11108SOL    HW138171   3.371   0.064   2.618
11108SOL    HW238172   3.310   0.054   2.479
11109SOL     OW38173   2.058   9.537   3.340
11109SOL    HW138174   1.970   9.572   3.325
11109SOL    HW238175   2.062   9.522   3.434
11110SOL     OW38176   3.230   9.342   2.308
11110SOL    HW138177   3.234   9.329   2.213
11110SOL    HW238178   3.297   9.408   2.326
11111SOL     OW38179   3.353   9.539   3.583
11111SOL    HW138180   3.361   9.538   3.678
11111SOL    HW238181   3.290   9.469   3.564
11112SOL     OW38182   2.698   9.551   3.718
11112SOL    HW138183   2.756   9.609   3.766
11112SOL    HW238184   2.644   9.609   3.665
11113SOL     OW38185   3.324   9.882   3.287
11113SOL    HW138186   3.299   9.857   3.376
11113SOL    HW238187   3.335   9.977   3.291
11114SOL     OW38188   2.775   9.811   2.716
11114SOL    HW138189   2.750   9.799   2.624
11114SOL    HW238190   2.818   9.729   2.740
11115SOL     OW38191   2.400   9.377   2.340
11115SOL    HW138192   2.323   9.372   2.397
11115SOL    HW238193   2.391   9.461   2.294
11116SOL     OW38194   2.195   9.371   2.028
11116SOL    HW138195   2.269   9.428   2.008
11116SOL    HW238196   2.233   9.296   2.073
11117SOL     OW38197   2.808   9.562   2.286
11117SOL    HW138198   2.786   9.594   2.199
11117SOL    HW238199   2.779   9.631   2.345
11118SOL     OW38200   2.929   9.960   3.453
11118SOL    HW138201   2.854   9.925   3.405
11118SOL    HW238202   2.961   0.031   3.397
11119SOL     OW38203   2.913   9.850   1.905
11119SOL    HW138204   2.889   9.938   1.875
11119SOL    HW238205   2.972   9.865   1.979
11120SOL     OW38206   1.845   9.898   3.276
11120SOL    HW138207   1.891   9.976   3.245
11120SOL    HW238208   1.762   9.931   3.310
11121SOL     OW38209   2.416   9.548   3.037
11121SOL    HW138210   2.443   9.530   2.947
11121SOL    HW238211   2.320   9.539   3.036
11122SOL     OW38212   2.693   9.765   2.450
11122SOL    HW138213   2.710   9.849   2.409
11122SOL    HW238214   2.598   9.753   2.444
11123SOL     OW38215   2.896   9.333   2.505
11123SOL    HW138216   2.812   9.325   2.460
11123SOL    HW238217   2.884   9.284   2.587
11124SOL     OW38218   3.359   9.883   2.884
11124SOL    HW138219   3.275   9.844   2.860
11124SOL    HW238220   3.336   9.971   2.913
11125SOL     OW38221   2.385   9.626   2.215
11125SOL    HW138222   2.414   9.574   2.140
11125SOL    HW238223   2.346   9.704   2.177
11126SOL     OW38224   2.863   9.359   3.236
11126SOL    HW138225   2.862   9.385   3.144
11126SOL    HW238226   2.895   9.436   3.283
11127SOL     OW38227   3.147   9.678   3.200
11127SOL    HW138228   3.199   9.756   3.219
11127SOL    HW238229   3.061   9.713   3.175
11128SOL     OW38230   2.410   9.826   2.711
11128SOL    HW138231   2.398   9.786   2.625
11128SOL    HW238232   2.424   9.919   2.692
11129SOL     OW38233   3.481   9.904   2.268
11129SOL    HW138234   3.405   9.963   2.264
11129SOL    HW238235   3.548   9.956   2.313
11130SOL     OW38236   2.903   9.386   3.645
11130SOL    HW138237   2.829   9.438   3.673
11130SOL    HW238238   2.936   9.429   3.567
11131SOL     OW38239   3.092   9.847   2.125
11131SOL    HW138240   3.094   9.768   2.180
11131SOL    HW238241   3.043   9.910   2.177
11132SOL     OW38242   2.151   9.493   3.079
11132SOL    HW138243   2.090   9.517   3.149
11132SOL    HW238244   2.145   9.398   3.073
11133SOL     OW38245   2.626   9.934   2.915
11133SOL    HW138246   2.665   9.893   2.837
11133SOL    HW238247   2.574   0.006   2.881
11134SOL     OW38248   2.177   9.351   2.497
11134SOL    HW138249   2.144   9.437   2.523
11134SOL    HW238250   2.185   9.303   2.580
11135SOL     OW38251   3.408   9.628   2.267
11135SOL    HW138252   3.482   9.585   2.309
11135SOL    HW238253   3.431   9.720   2.266
11136SOL     OW38254   3.426   9.522   1.981
11136SOL    HW138255   3.364   9.458   2.014
11136SOL    HW238256   3.435   9.585   2.053
11137SOL     OW38257   2.184   0.107   2.849
11137SOL    HW138258   2.208   0.099   2.757
11137SOL    HW238259   2.193   0.018   2.884
11138SOL     OW38260   2.223   9.835   2.914
11138SOL    HW138261   2.163   9.767   2.884
11138SOL    HW238262   2.296   9.832   2.852
11139SOL     OW38263   2.991   9.729   3.597
11139SOL    HW138264   2.953   9.720   3.684
11139SOL    HW238265   2.949   9.806   3.560
11140SOL     OW38266   3.020   9.534   3.406
11140SOL    HW138267   3.001   9.602   3.471
11140SOL    HW238268   3.064   9.581   3.335
11141SOL     OW38269   1.846   9.832   2.992
11141SOL    HW138270   1.909   9.798   2.928
11141SOL    HW238271   1.900   9.857   3.067
11142SOL     OW38272   2.129   9.815   3.672
11142SOL    HW138273   2.225   9.816   3.663
11142SOL    HW238274   2.098   9.882   3.612
11143SOL     OW38275   2.681   9.910   2.184
11143SOL    HW138276   2.689   9.829   2.133
11143SOL    HW238277   2.619   9.963   2.134
11144SOL     OW38278   3.531   9.877   3.097
11144SOL    HW138279   3.464   9.888   3.165
11144SOL    HW238280   3.483   9.876   3.015
11145SOL     OW38281   2.585   9.756   3.121
11145SOL    HW138282   2.525   9.691   3.086
11145SOL    HW238283   2.588   9.825   3.054
11146SOL     OW38284   3.618   9.474   2.381
11146SOL    HW138285   3.675   9.467   2.304
11146SOL    HW238286   3.606   9.383   2.410
11147SOL     OW38287   3.681   9.460   2.811
11147SOL    HW138288   3.711   9.442   2.722
11147SOL    HW238289   3.591   9.490   2.801
11148SOL     OW38290   2.119   9.607   2.585
11148SOL    HW138291   2.040   9.644   2.546
11148SOL    HW238292   2.106   9.617   2.680
11149SOL     OW38293   2.905   9.571   2.778
11149SOL    HW138294   2.903   9.521   2.697
11149SOL    HW238295   2.897   9.506   2.847
11150SOL     OW38296   3.592   9.641   3.239
11150SOL    HW138297   3.570   9.721   3.191
11150SOL    HW238298   3.658   9.599   3.185
11151SOL     OW38299   1.911   9.643   1.917
11151SOL    HW138300   1.851   9.631   1.843
11151SOL    HW238301   1.904   9.736   1.939
11152SOL     OW38302   1.942   9.448   2.108
11152SOL    HW138303   1.919   9.516   2.045
11152SOL    HW238304   2.034   9.428   2.088
11153SOL     OW38305   3.136   9.628   2.319
11153SOL    HW138306   3.227   9.631   2.292
11153SOL    HW238307   3.132   9.684   2.397
11154SOL     OW38308   3.582   9.667   3.513
11154SOL    HW138309   3.583   9.679   3.418
11154SOL    HW238310   3.494   9.635   3.532
11155SOL     OW38311   3.007   0.306   1.974
11155SOL    HW138312   3.029   0.370   2.041
11155SOL    HW238313   2.994   0.357   1.895
11156SOL     OW38314   3.730   9.450   3.081
11156SOL    HW138315   3.673   9.379   3.110
11156SOL    HW238316   3.712   9.458   2.987
11157SOL     OW38317   2.376   9.661   2.491
11157SOL    HW138318   2.380   9.654   2.395
11157SOL    HW238319   2.283   9.648   2.511
11158SOL     OW38320   2.112   9.942   3.141
11158SOL    HW138321   2.156   9.898   3.214
11158SOL    HW238322   2.155   9.908   3.062
11159SOL     OW38323   3.238   9.527   2.990
11159SOL    HW138324   3.200   9.441   3.004
11159SOL    HW238325   3.217   9.577   3.069
11160SOL     OW38326   2.898   9.343   2.938
11160SOL    HW138327   2.840   9.287   2.886
11160SOL    HW238328   2.979   9.293   2.945
11161SOL     OW38329   3.238   9.326   2.036
11161SOL    HW138330   3.262   9.244   1.992
11161SOL    HW238331   3.181   9.371   1.974
11162SOL     OW38332   3.169   9.775   2.547
11162SOL    HW138333   3.208   9.862   2.541
11162SOL    HW238334   3.155   9.760   2.640
11163SOL     OW38335   3.420   9.526   2.778
11163SOL    HW138336   3.356   9.545   2.847
11163SOL    HW238337   3.420   9.605   2.723
11164SOL     OW38338   2.123   9.568   4.733
11164SOL    HW138339   2.099   9.561   4.825
11164SOL    HW238340   2.045   9.605   4.691
11165SOL     OW38341   1.858   9.616   4.372
11165SOL    HW138342   1.786   9.672   4.403
11165SOL    HW238343   1.818   9.560   4.305
11166SOL     OW38344   3.688   9.791   3.903
11166SOL    HW138345   3.648   9.847   3.836
11166SOL    HW238346   3.617   9.774   3.965
11167SOL     OW38347   3.495   9.722   4.522
11167SOL    HW138348   3.419   9.752   4.473
11167SOL    HW238349   3.490   9.768   4.606
11168SOL     OW38350   3.440   9.441   5.157
11168SOL    HW138351   3.506   9.509   5.145
11168SOL    HW238352   3.404   9.457   5.244
11169SOL     OW38353   2.688   9.338   4.281
11169SOL    HW138354   2.708   9.411   4.222
11169SOL    HW238355   2.592   9.332   4.279
11170SOL     OW38356   2.200   9.625   5.645
11170SOL    HW138357   2.231   9.580   5.567
11170SOL    HW238358   2.123   9.674   5.616
11171SOL     OW38359   3.192   9.673   4.662
11171SOL    HW138360   3.103   9.641   4.642
11171SOL    HW238361   3.222   9.617   4.734
11172SOL     OW38362   2.685   9.845   5.141
11172SOL    HW138363   2.643   9.842   5.227
11172SOL    HW238364   2.624   9.895   5.087
11173SOL     OW38365   3.276   9.800   5.428
11173SOL    HW138366   3.330   9.865   5.474
11173SOL    HW238367   3.332   9.722   5.422
11174SOL     OW38368   2.860   9.716   4.970
11174SOL    HW138369   2.796   9.760   5.026
11174SOL    HW238370   2.840   9.747   4.881
11175SOL     OW38371   3.524   9.928   5.520
11175SOL    HW138372   3.555   9.993   5.458
11175SOL    HW238373   3.556   9.844   5.485
11176SOL     OW38374   2.373   9.482   4.664
11176SOL    HW138375   2.288   9.515   4.694
11176SOL    HW238376   2.403   9.546   4.600
11177SOL     OW38377   2.074   9.593   5.284
11177SOL    HW138378   1.988   9.592   5.326
11177SOL    HW238379   2.130   9.545   5.344
11178SOL     OW38380   3.303   9.401   4.168
11178SOL    HW138381   3.274   9.366   4.084
11178SOL    HW238382   3.260   9.487   4.174
11179SOL     OW38383   3.355   9.519   5.421
11179SOL    HW138384   3.370   9.516   5.515
11179SOL    HW238385   3.263   9.496   5.410
11180SOL     OW38386   2.549   9.316   3.774
11180SOL    HW138387   2.614   9.386   3.773
11180SOL    HW238388   2.467   9.359   3.749
11181SOL     OW38389   2.653   9.483   5.586
11181SOL    HW138390   2.739   9.454   5.554
11181SOL    HW238391   2.592   9.459   5.516
11182SOL     OW38392   3.178   9.906   5.191
11182SOL    HW138393   3.207   9.867   5.273
11182SOL    HW238394   3.242   9.976   5.174
11183SOL     OW38395   2.840   9.792   4.701
11183SOL    HW138396   2.784   9.806   4.625
11183SOL    HW238397   2.887   9.711   4.683
11184SOL     OW38398   2.421   9.302   4.216
11184SOL    HW138399   2.341   9.315   4.267
11184SOL    HW238400   2.419   9.371   4.150
11185SOL     OW38401   2.180   9.372   3.867
11185SOL    HW138402   2.215   9.408   3.786
11185SOL    HW238403   2.247   9.389   3.933
11186SOL     OW38404   2.913   9.978   5.247
11186SOL    HW138405   2.855   9.910   5.214
11186SOL    HW238406   3.000   9.952   5.218
11187SOL     OW38407   2.023   9.911   5.062
11187SOL    HW138408   2.103   9.900   5.113
11187SOL    HW238409   1.952   9.893   5.124
11188SOL     OW38410   2.688   9.777   4.472
11188SOL    HW138411   2.601   9.813   4.487
11188SOL    HW238412   2.677   9.720   4.395
11189SOL     OW38413   2.913   9.346   4.443
11189SOL    HW138414   2.844   9.364   4.380
11189SOL    HW238415   2.875   9.281   4.503
11190SOL     OW38416   3.398   9.840   4.751
11190SOL    HW138417   3.317   9.792   4.733
11190SOL    HW238418   3.382   9.928   4.715
11191SOL     OW38419   2.428   9.472   4.000
11191SOL    HW138420   2.521   9.484   4.019
11191SOL    HW238421   2.413   9.519   3.918
11192SOL     OW38422   2.807   9.377   5.068
11192SOL    HW138423   2.838   9.369   4.978
11192SOL    HW238424   2.868   9.438   5.109
11193SOL     OW38425   3.127   9.694   5.020
11193SOL    HW138426   3.150   9.775   5.066
11193SOL    HW238427   3.036   9.708   4.991
11194SOL     OW38428   2.447   9.896   4.543
11194SOL    HW138429   2.404   9.942   4.471
11194SOL    HW238430   2.379   9.887   4.610
11195SOL     OW38431   3.438   9.935   4.231
11195SOL    HW138432   3.383   9.905   4.304
11195SOL    HW238433   3.525   9.947   4.269
11196SOL     OW38434   2.921   9.431   5.522
11196SOL    HW138435   2.954   9.516   5.491
11196SOL    HW238436   2.965   9.367   5.467
11197SOL     OW38437   3.082   0.013   4.060
11197SOL    HW138438   3.056   9.922   4.040
11197SOL    HW238439   3.009   0.046   4.113
11198SOL     OW38440   2.099   9.536   5.008
11198SOL    HW138441   2.078   9.557   5.099
11198SOL    HW238442   2.098   9.440   5.004
11199SOL     OW38443   2.549   0.056   4.758
11199SOL    HW138444   2.540   9.994   4.685
11199SOL    HW238445   2.469   0.108   4.756
11200SOL     OW38446   2.178   9.361   4.332
11200SOL    HW138447   2.161   9.455   4.338
11200SOL    HW238448   2.168   9.329   4.422
11201SOL     OW38449   3.479   9.715   4.060
11201SOL    HW138450   3.491   9.653   4.131
11201SOL    HW238451   3.443   9.794   4.102
11202SOL     OW38452   3.387   9.542   3.854
11202SOL    HW138453   3.315   9.499   3.899
11202SOL    HW238454   3.414   9.612   3.913
11203SOL     OW38455   2.272   9.898   4.763
11203SOL    HW138456   2.191   9.905   4.713
11203SOL    HW238457   2.296   9.989   4.782
11204SOL     OW38458   3.030   9.674   5.438
11204SOL    HW138459   2.978   9.725   5.500
11204SOL    HW238460   3.113   9.722   5.432
11205SOL     OW38461   3.019   9.517   5.203
11205SOL    HW138462   3.008   9.579   5.276
11205SOL    HW238463   3.060   9.569   5.134
11206SOL     OW38464   1.907   9.869   4.812
11206SOL    HW138465   1.955   9.905   4.738
11206SOL    HW238466   1.963   9.887   4.888
11207SOL     OW38467   2.131   9.859   5.364
11207SOL    HW138468   2.132   9.773   5.322
11207SOL    HW238469   2.075   9.848   5.440
11208SOL     OW38470   3.562   9.857   4.968
11208SOL    HW138471   3.495   9.853   4.900
11208SOL    HW238472   3.643   9.832   4.923
11209SOL     OW38473   3.564   9.491   4.212
11209SOL    HW138474   3.615   9.462   4.136
11209SOL    HW238475   3.479   9.450   4.200
11210SOL     OW38476   3.721   9.459   4.687
11210SOL    HW138477   3.741   9.372   4.651
11210SOL    HW238478   3.630   9.474   4.661
11211SOL     OW38479   2.131   9.637   4.380
11211SOL    HW138480   2.036   9.629   4.369
11211SOL    HW238481   2.142   9.708   4.444
11212SOL     OW38482   2.952   9.544   4.642
11212SOL    HW138483   2.938   9.497   4.560
11212SOL    HW238484   2.930   9.480   4.710
11213SOL     OW38485   3.632   9.649   5.140
11213SOL    HW138486   3.606   9.730   5.097
11213SOL    HW238487   3.670   9.595   5.071
11214SOL     OW38488   1.927   9.629   3.757
11214SOL    HW138489   1.864   9.642   3.686
11214SOL    HW238490   1.998   9.691   3.738
11215SOL     OW38491   1.921   9.436   3.959
11215SOL    HW138492   1.892   9.507   3.902
11215SOL    HW238493   2.011   9.418   3.932
11216SOL     OW38494   2.551   9.863   5.379
11216SOL    HW138495   2.484   9.930   5.392
11216SOL    HW238496   2.538   9.802   5.453
11217SOL     OW38497   3.180   9.645   4.159
11217SOL    HW138498   3.124   9.675   4.088
11217SOL    HW238499   3.173   9.713   4.226
11218SOL     OW38500   3.587   9.679   5.411
11218SOL    HW138501   3.615   9.679   5.320
11218SOL    HW238502   3.521   9.611   5.417
11219SOL     OW38503   2.967   0.268   3.814
11219SOL    HW138504   2.920   0.204   3.760
11219SOL    HW238505   3.054   0.228   3.828
11220SOL     OW38506   3.714   9.458   4.958
11220SOL    HW138507   3.690   9.366   4.964
11220SOL    HW238508   3.710   9.478   4.865
11221SOL     OW38509   2.319   9.775   4.200
11221SOL    HW138510   2.258   9.711   4.237
11221SOL    HW238511   2.300   9.856   4.247
11222SOL     OW38512   2.324   9.696   4.955
11222SOL    HW138513   2.237   9.659   4.965
11222SOL    HW238514   2.313   9.765   4.890
11223SOL     OW38515   3.305   9.538   4.885
11223SOL    HW138516   3.345   9.487   4.956
11223SOL    HW238517   3.244   9.597   4.929
11224SOL     OW38518   2.899   9.326   4.809
11224SOL    HW138519   2.845   9.276   4.748
11224SOL    HW238520   2.985   9.285   4.806
11225SOL     OW38521   3.204   9.329   3.921
11225SOL    HW138522   3.216   9.316   3.827
11225SOL    HW238523   3.110   9.318   3.934
11226SOL     OW38524   3.266   9.841   4.433
11226SOL    HW138525   3.276   9.922   4.483
11226SOL    HW238526   3.211   9.786   4.489
11227SOL     OW38527   3.450   9.482   4.653
11227SOL    HW138528   3.400   9.512   4.729
11227SOL    HW238529   3.451   9.557   4.594
11228SOL     OW38530   2.153   9.501   6.557
11228SOL    HW138531   2.160   9.514   6.652
11228SOL    HW238532   2.059   9.505   6.539
11229SOL     OW38533   1.903   9.664   6.258
11229SOL    HW138534   1.825   9.698   6.303
11229SOL    HW238535   1.870   9.592   6.204
11230SOL     OW38536   3.552   9.947   5.802
11230SOL    HW138537   3.554   9.931   5.707
11230SOL    HW238538   3.629   0.002   5.818
11231SOL     OW38539   2.397   9.716   6.989
11231SOL    HW138540   2.448   9.639   7.015
11231SOL    HW238541   2.307   9.692   7.009
11232SOL     OW38542   3.432   9.706   6.327
11232SOL    HW138543   3.380   9.735   6.252
11232SOL    HW238544   3.415   9.771   6.395
11233SOL     OW38545   3.424   9.457   7.021
11233SOL    HW138546   3.482   9.531   7.006
11233SOL    HW238547   3.384   9.475   7.107
11234SOL     OW38548   2.087   0.040   6.224
11234SOL    HW138549   2.021   9.975   6.200
11234SOL    HW238550   2.036   0.119   6.243
11235SOL     OW38551   2.665   9.298   6.060
11235SOL    HW138552   2.726   9.368   6.040
11235SOL    HW238553   2.581   9.342   6.072
11236SOL     OW38554   2.173   9.596   7.358
11236SOL    HW138555   2.180   9.691   7.350
11236SOL    HW238556   2.096   9.582   7.414
11237SOL     OW38557   3.122   9.708   6.538
11237SOL    HW138558   3.047   9.764   6.520
11237SOL    HW238559   3.084   9.624   6.561
11238SOL     OW38560   2.743   9.879   7.045
11238SOL    HW138561   2.695   9.864   7.127
11238SOL    HW238562   2.717   9.967   7.018
11239SOL     OW38563   3.289   9.777   7.243
11239SOL    HW138564   3.203   9.789   7.283
11239SOL    HW238565   3.313   9.687   7.263
11240SOL     OW38566   2.866   9.695   6.882
11240SOL    HW138567   2.821   9.754   6.943
11240SOL    HW238568   2.817   9.704   6.800
11241SOL     OW38569   2.954   9.941   6.108
11241SOL    HW138570   2.957   0.021   6.161
11241SOL    HW238571   2.861   9.919   6.103
11242SOL     OW38572   2.750   9.654   5.776
11242SOL    HW138573   2.812   9.706   5.725
11242SOL    HW238574   2.708   9.597   5.712
11243SOL     OW38575   3.628   9.870   7.403
11243SOL    HW138576   3.555   9.930   7.384
11243SOL    HW238577   3.610   9.793   7.349
11244SOL     OW38578   2.422   9.442   6.520
11244SOL    HW138579   2.338   9.486   6.528
11244SOL    HW238580   2.486   9.514   6.512
11245SOL     OW38581   3.406   0.022   6.315
11245SOL    HW138582   3.382   9.975   6.395
11245SOL    HW238583   3.407   0.114   6.340
11246SOL     OW38584   2.136   9.619   7.079
11246SOL    HW138585   2.077   9.694   7.072
11246SOL    HW238586   2.145   9.604   7.173
11247SOL     OW38587   3.280   9.425   6.020
11247SOL    HW138588   3.246   9.404   5.933
11247SOL    HW238589   3.348   9.491   6.005
11248SOL     OW38590   3.349   9.510   7.295
11248SOL    HW138591   3.365   9.519   7.389
11248SOL    HW238592   3.279   9.444   7.290
11249SOL     OW38593   2.424   9.362   5.692
11249SOL    HW138594   2.515   9.392   5.683
11249SOL    HW238595   2.387   9.372   5.604
11250SOL     OW38596   2.635   9.580   7.343
11250SOL    HW138597   2.726   9.549   7.345
11250SOL    HW238598   2.592   9.534   7.414
11251SOL     OW38599   3.245   9.897   7.003
11251SOL    HW138600   3.275   9.852   7.082
11251SOL    HW238601   3.159   9.932   7.026
11252SOL     OW38602   2.893   9.835   6.471
11252SOL    HW138603   2.852   9.784   6.401
11252SOL    HW238604   2.829   9.833   6.542
11253SOL     OW38605   2.415   9.411   6.072
11253SOL    HW138606   2.340   9.406   6.131
11253SOL    HW238607   2.399   9.491   6.021
11254SOL     OW38608   2.147   9.378   5.747
11254SOL    HW138609   2.156   9.467   5.711
11254SOL    HW238610   2.238   9.349   5.758
11255SOL     OW38611   2.834   9.503   5.994
11255SOL    HW138612   2.793   9.554   5.925
11255SOL    HW238613   2.918   9.547   6.010
11256SOL     OW38614   2.998   9.962   7.110
11256SOL    HW138615   2.915   9.942   7.066
11256SOL    HW238616   3.015   0.053   7.088
11257SOL     OW38617   2.924   9.830   5.642
11257SOL    HW138618   2.881   9.914   5.625
11257SOL    HW238619   2.983   9.848   5.715
11258SOL     OW38620   1.988   9.860   7.058
11258SOL    HW138621   2.016   9.867   6.966
11258SOL    HW238622   1.915   9.922   7.066
11259SOL     OW38623   2.746   9.684   6.297
11259SOL    HW138624   2.696   9.737   6.236
11259SOL    HW238625   2.684   9.663   6.367
11260SOL     OW38626   2.913   9.349   6.271
11260SOL    HW138627   2.864   9.412   6.219
11260SOL    HW238628   2.846   9.303   6.322
11261SOL     OW38629   3.355   9.865   6.540
11261SOL    HW138630   3.274   9.817   6.556
11261SOL    HW238631   3.388   9.887   6.627
11262SOL     OW38632   2.365   9.602   5.876
11262SOL    HW138633   2.412   9.544   5.817
11262SOL    HW238634   2.297   9.641   5.822
11263SOL     OW38635   2.823   9.438   6.992
11263SOL    HW138636   2.820   9.508   6.928
11263SOL    HW238637   2.898   9.460   7.048
11264SOL     OW38638   3.139   9.674   6.866
11264SOL    HW138639   3.174   9.759   6.892
11264SOL    HW238640   3.045   9.688   6.857
11265SOL     OW38641   3.442   9.879   6.078
11265SOL    HW138642   3.443   9.931   6.158
11265SOL    HW238643   3.499   9.926   6.017
11266SOL     OW38644   2.895   9.488   7.351
11266SOL    HW138645   2.941   9.570   7.332
11266SOL    HW238646   2.964   9.421   7.353
11267SOL     OW38647   2.328   9.358   7.359
11267SOL    HW138648   2.278   9.305   7.297
11267SOL    HW238649   2.282   9.442   7.361
11268SOL     OW38650   3.085   9.870   5.867
11268SOL    HW138651   3.093   9.781   5.900
11268SOL    HW238652   3.047   9.920   5.940
11269SOL     OW38653   2.157   9.503   6.831
11269SOL    HW138654   2.144   9.530   6.922
11269SOL    HW238655   2.144   9.408   6.832
11270SOL     OW38656   2.179   9.373   6.210
11270SOL    HW138657   2.166   9.466   6.232
11270SOL    HW238658   2.178   9.329   6.295
11271SOL     OW38659   3.454   9.634   5.943
11271SOL    HW138660   3.544   9.651   5.915
11271SOL    HW238661   3.427   9.713   5.989
11272SOL     OW38662   3.376   9.520   5.691
11272SOL    HW138663   3.299   9.473   5.724
11272SOL    HW238664   3.406   9.571   5.766
11273SOL     OW38665   2.280   0.060   6.586
11273SOL    HW138666   2.334   0.127   6.545
11273SOL    HW238667   2.236   0.105   6.658
11274SOL     OW38668   2.147   9.831   6.520
11274SOL    HW138669   2.070   9.862   6.472
11274SOL    HW238670   2.200   9.910   6.533
11275SOL     OW38671   3.007   9.742   7.283
11275SOL    HW138672   2.967   9.766   7.367
11275SOL    HW238673   2.993   9.818   7.227
11276SOL     OW38674   3.063   9.539   7.095
11276SOL    HW138675   3.046   9.614   7.152
11276SOL    HW238676   3.095   9.577   7.013
11277SOL     OW38677   1.807   9.829   6.805
11277SOL    HW138678   1.859   9.909   6.800
11277SOL    HW238679   1.718   9.857   6.783
11278SOL     OW38680   2.121   9.870   7.297
11278SOL    HW138681   2.069   9.865   7.217
11278SOL    HW238682   2.145   9.962   7.305
11279SOL     OW38683   2.645   9.899   5.854
11279SOL    HW138684   2.667   9.809   5.831
11279SOL    HW238685   2.652   9.902   5.949
11280SOL     OW38686   3.496   9.909   6.791
11280SOL    HW138687   3.468   9.845   6.857
11280SOL    HW238688   3.583   9.879   6.765
11281SOL     OW38689   3.697   9.438   6.106
11281SOL    HW138690   3.712   9.451   6.012
11281SOL    HW238691   3.627   9.373   6.110
11282SOL     OW38692   3.695   9.491   6.510
11282SOL    HW138693   3.712   9.548   6.436
11282SOL    HW238694   3.601   9.478   6.510
11283SOL     OW38695   2.175   9.644   6.284
11283SOL    HW138696   2.082   9.660   6.267
11283SOL    HW238697   2.187   9.665   6.377
11284SOL     OW38698   2.887   9.527   6.563
11284SOL    HW138699   2.868   9.526   6.469
11284SOL    HW238700   2.825   9.592   6.599
11285SOL     OW38701   3.616   9.659   6.985
11285SOL    HW138702   3.684   9.727   6.989
11285SOL    HW238703   3.643   9.603   6.912
11286SOL     OW38704   2.562   9.496   7.087
11286SOL    HW138705   2.651   9.484   7.056
11286SOL    HW238706   2.572   9.533   7.175
11287SOL     OW38707   1.963   9.742   5.561
11287SOL    HW138708   1.896   9.717   5.497
11287SOL    HW238709   1.916   9.795   5.625
11288SOL     OW38710   1.902   9.430   5.862
11288SOL    HW138711   1.868   9.503   5.809
11288SOL    HW238712   1.990   9.414   5.828
11289SOL     OW38713   2.626   9.857   7.288
11289SOL    HW138714   2.549   9.900   7.323
11289SOL    HW238715   2.617   9.766   7.317
11290SOL     OW38716   3.086   9.628   6.017
11290SOL    HW138717   3.147   9.554   6.026
11290SOL    HW238718   3.100   9.681   6.096
11291SOL     OW38719   3.601   9.629   7.262
11291SOL    HW138720   3.606   9.644   7.167
11291SOL    HW238721   3.517   9.587   7.275
11292SOL     OW38722   3.104   0.288   5.629
11292SOL    HW138723   3.053   0.369   5.627
11292SOL    HW238724   3.043   0.219   5.604
11293SOL     OW38725   3.680   9.476   6.793
11293SOL    HW138726   3.677   9.381   6.800
11293SOL    HW238727   3.681   9.493   6.699
11294SOL     OW38728   2.404   9.783   6.132
11294SOL    HW138729   2.388   9.739   6.049
11294SOL    HW238730   2.335   9.751   6.190
11295SOL     OW38731   2.164   9.791   6.798
11295SOL    HW138732   2.156   9.696   6.809
11295SOL    HW238733   2.143   9.805   6.705
11296SOL     OW38734   3.294   9.466   6.769
11296SOL    HW138735   3.341   9.455   6.852
11296SOL    HW238736   3.231   9.536   6.787
11297SOL     OW38737   2.841   9.282   6.687
11297SOL    HW138738   2.746   9.290   6.678
11297SOL    HW238739   2.875   9.364   6.651
11298SOL     OW38740   3.154   9.381   5.775
11298SOL    HW138741   3.082   9.425   5.730
11298SOL    HW238742   3.117   9.299   5.806
11299SOL     OW38743   3.144   9.771   6.243
11299SOL    HW138744   3.081   9.839   6.218
11299SOL    HW238745   3.131   9.760   6.337
11300SOL     OW38746   3.422   9.491   6.501
11300SOL    HW138747   3.367   9.520   6.573
11300SOL    HW238748   3.411   9.559   6.434
11301SOL     OW38749   2.025   9.623   8.480
11301SOL    HW138750   2.068   9.585   8.557
11301SOL    HW238751   1.942   9.656   8.513
11302SOL     OW38752   1.848   9.567   8.139
11302SOL    HW138753   1.788   9.632   8.175
11302SOL    HW238754   1.803   9.533   8.062
11303SOL     OW38755   3.680   9.770   7.655
11303SOL    HW138756   3.664   9.822   7.577
11303SOL    HW238757   3.632   9.816   7.724
11304SOL     OW38758   2.281   9.679   9.043
11304SOL    HW138759   2.362   9.657   8.996
11304SOL    HW238760   2.212   9.642   8.988
11305SOL     OW38761   3.398   9.750   8.221
11305SOL    HW138762   3.312   9.764   8.182
11305SOL    HW238763   3.395   9.798   8.304
11306SOL     OW38764   1.897   9.985   7.991
11306SOL    HW138765   1.854   9.968   8.075
11306SOL    HW238766   1.988   0.003   8.013
11307SOL     OW38767   2.716   9.282   7.953
11307SOL    HW138768   2.747   9.249   8.038
11307SOL    HW238769   2.631   9.321   7.973
11308SOL     OW38770   2.195   9.554   9.277
11308SOL    HW138771   2.236   9.609   9.210
11308SOL    HW238772   2.107   9.590   9.286
11309SOL     OW38773   2.718   9.795   8.883
11309SOL    HW138774   2.679   9.794   8.970
11309SOL    HW238775   2.643   9.804   8.824
11310SOL     OW38776   3.312   9.726   9.143
11310SOL    HW138777   3.334   9.716   9.236
11310SOL    HW238778   3.308   9.636   9.110
11311SOL     OW38779   2.886   9.746   8.661
11311SOL    HW138780   2.831   9.744   8.740
11311SOL    HW238781   2.856   9.671   8.610
11312SOL     OW38782   2.936   9.924   7.917
11312SOL    HW138783   2.963   9.930   8.008
11312SOL    HW238784   2.848   9.961   7.915
11313SOL     OW38785   2.839   9.589   7.699
11313SOL    HW138786   2.869   9.661   7.644
11313SOL    HW238787   2.783   9.536   7.643
11314SOL     OW38788   3.529   9.945   9.218
11314SOL    HW138789   3.503   0.034   9.194
11314SOL    HW238790   3.459   9.890   9.185
11315SOL     OW38791   2.428   9.427   8.316
11315SOL    HW138792   2.378   9.470   8.384
11315SOL    HW238793   2.491   9.493   8.286
11316SOL     OW38794   3.343   0.028   8.120
11316SOL    HW138795   3.276   9.976   8.164
11316SOL    HW238796   3.391   0.071   8.191
11317SOL     OW38797   2.060   9.572   8.916
11317SOL    HW138798   1.983   9.625   8.897
11317SOL    HW238799   2.025   9.492   8.956
11318SOL     OW38800   3.196   9.436   7.838
11318SOL    HW138801   3.216   9.388   7.758
11318SOL    HW238802   3.269   9.497   7.849
11319SOL     OW38803   2.531   9.418   7.540
11319SOL    HW138804   2.546   9.336   7.587
11319SOL    HW238805   2.451   9.403   7.489
11320SOL     OW38806   2.617   9.532   9.181
11320SOL    HW138807   2.708   9.509   9.196
11320SOL    HW238808   2.616   9.628   9.182
11321SOL     OW38809   3.290   9.897   8.868
11321SOL    HW138810   3.288   9.850   8.951
11321SOL    HW238811   3.304   9.989   8.892
11322SOL     OW38812   2.459   9.392   8.004
11322SOL    HW138813   2.447   9.384   8.098
11322SOL    HW238814   2.427   9.480   7.983
11323SOL     OW38815   2.151   9.342   7.648
11323SOL    HW138816   2.197   9.425   7.662
11323SOL    HW238817   2.213   9.275   7.679
11324SOL     OW38818   2.939   9.932   8.997
11324SOL    HW138819   2.870   9.894   8.941
11324SOL    HW238820   2.971   0.007   8.948
11325SOL     OW38821   2.905   9.809   7.532
11325SOL    HW138822   2.827   9.859   7.556
11325SOL    HW238823   2.975   9.848   7.583
11326SOL     OW38824   1.937   9.897   8.852
11326SOL    HW138825   2.026   9.898   8.816
11326SOL    HW238826   1.887   9.955   8.795
11327SOL     OW38827   2.458   9.460   8.658
11327SOL    HW138828   2.489   9.480   8.747
11327SOL    HW238829   2.365   9.478   8.660
11328SOL     OW38830   3.334   9.899   8.437
11328SOL    HW138831   3.251   9.883   8.481
11328SOL    HW238832   3.388   9.943   8.503
11329SOL     OW38833   2.311   9.548   7.718
11329SOL    HW138834   2.390   9.577   7.672
11329SOL    HW238835   2.314   9.593   7.802
11330SOL     OW38836   2.808   9.415   8.838
11330SOL    HW138837   2.832   9.326   8.814
11330SOL    HW238838   2.890   9.455   8.866
11331SOL     OW38839   3.135   9.874   8.633
11331SOL    HW138840   3.180   9.870   8.717
11331SOL    HW238841   3.062   9.813   8.641
11332SOL     OW38842   2.392   9.767   8.326
11332SOL    HW138843   2.457   9.707   8.287
11332SOL    HW238844   2.444   9.838   8.362
11333SOL     OW38845   3.475   9.884   7.909
11333SOL    HW138846   3.423   9.918   7.981
11333SOL    HW238847   3.564   9.915   7.927
11334SOL     OW38848   2.888   9.483   9.234
11334SOL    HW138849   2.937   9.559   9.204
11334SOL    HW238850   2.945   9.409   9.215
11335SOL     OW38851   2.320   9.315   9.229
11335SOL    HW138852   2.274   9.275   9.155
11335SOL    HW238853   2.276   9.399   9.241
11336SOL     OW38854   3.102   9.901   7.702
11336SOL    HW138855   3.168   9.844   7.741
11336SOL    HW238856   3.044   9.923   7.775
11337SOL     OW38857   2.186   9.503   8.682
11337SOL    HW138858   2.154   9.545   8.762
11337SOL    HW238859   2.153   9.414   8.687
11338SOL     OW38860   2.577   9.937   8.439
11338SOL    HW138861   2.643   9.906   8.377
11338SOL    HW238862   2.571   0.031   8.422
11339SOL     OW38863   3.425   9.609   7.843
11339SOL    HW138864   3.479   9.566   7.909
11339SOL    HW238865   3.434   9.703   7.863
11340SOL     OW38866   3.394   9.533   7.564
11340SOL    HW138867   3.345   9.454   7.586
11340SOL    HW238868   3.416   9.573   7.648
11341SOL     OW38869   2.244   0.084   8.340
11341SOL    HW138870   2.328   0.122   8.366
11341SOL    HW238871   2.226   0.018   8.406
11342SOL     OW38872   2.191   9.847   8.486
11342SOL    HW138873   2.123   9.781   8.478
11342SOL    HW238874   2.262   9.815   8.431
11343SOL     OW38875   3.026   9.702   9.132
11343SOL    HW138876   2.993   9.785   9.097
11343SOL    HW238877   3.118   9.719   9.152
11344SOL     OW38878   3.053   9.500   8.946
11344SOL    HW138879   3.025   9.577   8.995
11344SOL    HW238880   3.145   9.487   8.972
11345SOL     OW38881   1.788   9.785   8.554
11345SOL    HW138882   1.785   9.815   8.463
11345SOL    HW238883   1.788   9.865   8.606
11346SOL     OW38884   2.049   9.836   9.111
11346SOL    HW138885   2.138   9.811   9.087
11346SOL    HW238886   2.011   9.871   9.031
11347SOL     OW38887   2.688   9.913   7.687
11347SOL    HW138888   2.656   9.828   7.718
11347SOL    HW238889   2.693   9.966   7.766
11348SOL     OW38890   3.472   9.966   8.667
11348SOL    HW138891   3.412   9.941   8.737
11348SOL    HW238892   3.526   9.888   8.651
11349SOL     OW38893   2.520   9.797   8.680
11349SOL    HW138894   2.504   9.712   8.638
11349SOL    HW238895   2.540   9.856   8.608
11350SOL     OW38896   3.590   9.465   8.066
11350SOL    HW138897   3.653   9.435   8.132
11350SOL    HW238898   3.505   9.459   8.109
11351SOL     OW38899   3.642   9.457   8.368
11351SOL    HW138900   3.687   9.373   8.357
11351SOL    HW238901   3.550   9.436   8.355
11352SOL     OW38902   2.129   9.621   8.153
11352SOL    HW138903   2.035   9.632   8.137
11352SOL    HW238904   2.150   9.685   8.221
11353SOL     OW38905   2.851   9.467   8.465
11353SOL    HW138906   2.877   9.529   8.397
11353SOL    HW238907   2.934   9.438   8.504
11354SOL     OW38908   3.707   9.644   8.846
11354SOL    HW138909   3.724   9.728   8.803
11354SOL    HW238910   3.693   9.583   8.775
11355SOL     OW38911   2.552   9.491   8.918
11355SOL    HW138912   2.641   9.478   8.886
11355SOL    HW238913   2.562   9.505   9.012
11356SOL     OW38914   1.928   9.622   7.496
11356SOL    HW138915   1.871   9.618   7.419
11356SOL    HW238916   1.940   9.716   7.512
11357SOL     OW38917   1.896   9.434   7.708
11357SOL    HW138918   1.881   9.505   7.645
11357SOL    HW238919   1.986   9.406   7.692
11358SOL     OW38920   2.623   9.810   9.159
11358SOL    HW138921   2.554   9.873   9.179
11358SOL    HW238922   2.692   9.831   9.222
11359SOL     OW38923   2.956   0.266   7.507
11359SOL    HW138924   2.947   0.357   7.480
11359SOL    HW238925   2.921   0.215   7.435
11360SOL     OW38926   3.671   9.457   8.647
11360SOL    HW138927   3.653   9.367   8.674
11360SOL    HW238928   3.645   9.460   8.555
11361SOL     OW38929   2.344   9.647   7.976
11361SOL    HW138930   2.266   9.637   8.031
11361SOL    HW238931   2.388   9.724   8.012
11362SOL     OW38932   2.197   9.871   8.760
11362SOL    HW138933   2.291   9.871   8.779
11362SOL    HW238934   2.192   9.873   8.665
11363SOL     OW38935   3.270   9.290   7.611
11363SOL    HW138936   3.350   9.242   7.591
11363SOL    HW238937   3.200   9.225   7.603
11364SOL     OW38938   3.125   9.843   8.195
11364SOL    HW138939   3.054   9.905   8.211
11364SOL    HW238940   3.096   9.762   8.236
11365SOL     OW38941   3.370   9.477   8.223
11365SOL    HW138942   3.275   9.464   8.216
11365SOL    HW238943   3.379   9.570   8.242
11366SOL     OW38944   3.547   9.930   9.501
11366SOL    HW138945   3.541   9.946   9.407
11366SOL    HW238946   3.520   9.838   9.511
11367SOL     OW38947   1.917   9.820   9.918
11367SOL    HW138948   1.969   9.780   9.849
11367SOL    HW238949   1.970   9.893   9.950
11368SOL     OW38950   2.621   9.254   9.808
11368SOL    HW138951   2.678   9.265   9.884
11368SOL    HW238952   2.564   9.331   9.809
11369SOL     OW38953   2.918   9.992   9.738
11369SOL    HW138954   2.954   9.983   9.826
11369SOL    HW238955   2.826   0.016   9.752
11370SOL     OW38956   2.759   9.593   9.449
11370SOL    HW138957   2.771   9.683   9.420
11370SOL    HW238958   2.809   9.541   9.387
11371SOL     OW38959   3.276   9.430   9.712
11371SOL    HW138960   3.279   9.411   9.618
11371SOL    HW238961   3.368   9.444   9.737
11372SOL     OW38962   2.490   9.407   9.433
11372SOL    HW138963   2.568   9.453   9.402
11372SOL    HW238964   2.444   9.383   9.353
11373SOL     OW38965   2.411   9.451   9.827
11373SOL    HW138966   2.318   9.450   9.847
11373SOL    HW238967   2.421   9.523   9.764
11374SOL     OW38968   2.143   9.381   9.485
11374SOL    HW138969   2.178   9.448   9.426
11374SOL    HW238970   2.221   9.344   9.527
11375SOL     OW38971   2.811   9.672   9.707
11375SOL    HW138972   2.789   9.628   9.624
11375SOL    HW238973   2.905   9.659   9.717
11376SOL     OW38974   2.827   9.848   9.363
11376SOL    HW138975   2.830   9.935   9.323
11376SOL    HW238976   2.906   9.844   9.417
11377SOL     OW38977   2.752   9.752   9.962
11377SOL    HW138978   2.659   9.773   9.965
11377SOL    HW238979   2.767   9.724   9.872
11378SOL     OW38980   2.437   9.633   9.627
11378SOL    HW138981   2.459   9.583   9.548
11378SOL    HW238982   2.484   9.716   9.617
11379SOL     OW38983   3.498   9.969   9.768
11379SOL    HW138984   3.414   0.014   9.772
11379SOL    HW238985   3.521   9.968   9.675
11380SOL     OW38986   3.041   9.845   9.547
11380SOL    HW138987   3.070   9.769   9.597
11380SOL    HW238988   2.997   9.901   9.611
11381SOL     OW38989   2.153   9.387   9.917
11381SOL    HW138990   2.096   9.459   9.944
11381SOL    HW238991   2.179   9.345   9.998
11382SOL     OW38992   3.468   9.703   9.656
11382SOL    HW138993   3.490   9.627   9.710
11382SOL    HW238994   3.472   9.777   9.716
11383SOL     OW38995   3.376   9.655   9.401
11383SOL    HW138996   3.342   9.565   9.401
11383SOL    HW238997   3.400   9.673   9.492
11384SOL     OW38998   2.603   9.867   9.617
11384SOL    HW138999   2.684   9.816   9.629
11384SOL    HW239000   2.599   9.924   9.694
11385SOL     OW39001   3.541   9.480   9.802
11385SOL    HW139002   3.629   9.455   9.772
11385SOL    HW239003   3.550   9.487   9.897
11386SOL     OW39004   1.937   9.662   9.294
11386SOL    HW139005   1.859   9.645   9.241
11386SOL    HW239006   1.978   9.738   9.254
11387SOL     OW39007   1.898   9.478   9.558
11387SOL    HW139008   1.887   9.546   9.492
11387SOL    HW239009   1.988   9.448   9.546
11388SOL     OW39010   3.090   9.642   9.739
11388SOL    HW139011   3.151   9.570   9.723
11388SOL    HW239012   3.112   9.674   9.826
11389SOL     OW39013   3.056   0.203   9.322
11389SOL    HW139014   3.069   0.265   9.250
11389SOL    HW239015   3.049   0.259   9.400
11390SOL     OW39016   2.194   9.701   9.841
11390SOL    HW139017   2.255   9.722   9.771
11390SOL    HW239018   2.227   9.749   9.917
11391SOL     OW39019   3.289   9.392   9.420
11391SOL    HW139020   3.314   9.365   9.332
11391SOL    HW239021   3.215   9.336   9.442
11392SOL     OW39022   3.137   9.739   9.996
11392SOL    HW139023   3.075   9.811   9.988
11392SOL    HW239024   3.163   9.741   0.088
11393SOL     OW39025   3.883   0.511   0.196
11393SOL    HW139026   3.802   0.556   0.222
11393SOL    HW239027   3.854   0.438   0.142
11394SOL     OW39028   3.884   0.345   1.031
11394SOL    HW139029   3.943   0.293   1.086
11394SOL    HW239030   3.831   0.280   0.984
11395SOL     OW39031   3.713   0.437   0.650
11395SOL    HW139032   3.627   0.449   0.690
11395SOL    HW239033   3.701   0.363   0.591
11396SOL     OW39034   4.333   1.272   1.123
11396SOL    HW139035   4.258   1.291   1.066
11396SOL    HW239036   4.329   1.341   1.190
11397SOL     OW39037   5.304   1.523   0.715
11397SOL    HW139038   5.257   1.485   0.789
11397SOL    HW239039   5.239   1.528   0.645
11398SOL     OW39040   4.871   0.665   0.671
11398SOL    HW139041   4.896   0.758   0.677
11398SOL    HW239042   4.803   0.654   0.739
11399SOL     OW39043   5.483   0.568   0.218
11399SOL    HW139044   5.407   0.588   0.163
11399SOL    HW239045   5.447   0.512   0.288
11400SOL     OW39046   4.581   1.200   1.042
11400SOL    HW139047   4.495   1.217   1.081
11400SOL    HW239048   4.585   1.259   0.967
11401SOL     OW39049   4.623   0.738   1.823
11401SOL    HW139050   4.567   0.802   1.867
11401SOL    HW239051   4.641   0.777   1.738
11402SOL     OW39052   4.402   1.017   0.697
11402SOL    HW139053   4.478   1.004   0.754
11402SOL    HW239054   4.359   0.931   0.695
11403SOL     OW39055   4.444   1.100   1.809
11403SOL    HW139056   4.452   1.192   1.836
11403SOL    HW239057   4.361   1.096   1.762
11404SOL     OW39058   4.122   1.339   0.956
11404SOL    HW139059   4.060   1.267   0.956
11404SOL    HW239060   4.084   1.404   1.015
11405SOL     OW39061   5.125   1.478   1.355
11405SOL    HW139062   5.087   1.534   1.423
11405SOL    HW239063   5.216   1.467   1.381
11406SOL     OW39064   4.132   0.392   1.610
11406SOL    HW139065   4.217   0.355   1.587
11406SOL    HW239066   4.071   0.351   1.549
11407SOL     OW39067   5.298   0.461   0.776
11407SOL    HW139068   5.220   0.450   0.721
11407SOL    HW239069   5.273   0.529   0.839
11408SOL     OW39070   3.933   1.721   0.471
11408SOL    HW139071   3.969   1.787   0.531
11408SOL    HW239072   4.009   1.679   0.432
11409SOL     OW39073   4.862   1.325   1.724
11409SOL    HW139074   4.909   1.303   1.805
11409SOL    HW239075   4.817   1.243   1.701
11410SOL     OW39076   3.965   1.450   0.600
11410SOL    HW139077   3.923   1.535   0.608
11410SOL    HW239078   3.908   1.390   0.648
11411SOL     OW39079   3.971   1.106   0.938
11411SOL    HW139080   4.004   1.016   0.940
11411SOL    HW239081   3.877   1.098   0.952
11412SOL     OW39082   4.324   1.830   1.467
11412SOL    HW139083   4.241   1.787   1.487
11412SOL    HW239084   4.317   1.855   1.375
11413SOL     OW39085   4.329   0.905   0.168
11413SOL    HW139086   4.264   0.954   0.116
11413SOL    HW239087   4.354   0.966   0.237
11414SOL     OW39088   5.191   0.157   1.419
11414SOL    HW139089   5.138   0.222   1.374
11414SOL    HW239090   5.257   0.208   1.467
11415SOL     OW39091   3.827   0.677   0.551
11415SOL    HW139092   3.793   0.593   0.579
11415SOL    HW239093   3.829   0.730   0.631
11416SOL     OW39094   5.588   1.722   0.332
11416SOL    HW139095   5.657   1.706   0.397
11416SOL    HW239096   5.598   1.814   0.308
11417SOL     OW39097   3.760   1.591   0.089
11417SOL    HW139098   3.752   1.501   0.120
11417SOL    HW239099   3.747   1.645   0.167
11418SOL     OW39100   5.429   0.920   0.657
11418SOL    HW139101   5.506   0.875   0.622
11418SOL    HW239102   5.403   0.980   0.587
11419SOL     OW39103   5.384   1.103   0.455
11419SOL    HW139104   5.461   1.101   0.399
11419SOL    HW239105   5.401   1.175   0.516
11420SOL     OW39106   3.822   0.740   1.570
11420SOL    HW139107   3.871   0.807   1.619
11420SOL    HW239108   3.741   0.785   1.544
11421SOL     OW39109   4.977   1.249   1.395
11421SOL    HW139110   5.010   1.175   1.345
11421SOL    HW239111   5.044   1.317   1.384
11422SOL     OW39112   4.517   0.057   0.590
11422SOL    HW139113   4.554   0.133   0.546
11422SOL    HW239114   4.424   0.061   0.570
11423SOL     OW39115   3.896   0.953   1.247
11423SOL    HW139116   3.986   0.921   1.241
11423SOL    HW239117   3.845   0.891   1.195
11424SOL     OW39118   5.230   1.012   0.243
11424SOL    HW139119   5.176   0.934   0.261
11424SOL    HW239120   5.281   1.025   0.323
11425SOL     OW39121   4.981   1.839   1.630
11425SOL    HW139122   4.936   1.878   1.554
11425SOL    HW239123   4.975   1.744   1.615
11426SOL     OW39124   4.057   0.207   1.817
11426SOL    HW139125   4.091   0.278   1.763
11426SOL    HW239126   3.970   0.236   1.844
11427SOL     OW39127   5.186   1.403   0.933
11427SOL    HW139128   5.110   1.430   0.985
11427SOL    HW239129   5.164   1.315   0.903
11428SOL     OW39130   5.335   1.806   0.552
11428SOL    HW139131   5.334   1.754   0.472
11428SOL    HW239132   5.340   1.742   0.622
11429SOL     OW39133   4.297   0.667   0.291
11429SOL    HW139134   4.312   0.747   0.241
11429SOL    HW239135   4.226   0.689   0.351
11430SOL     OW39136   5.304   1.679   0.309
11430SOL    HW139137   5.399   1.672   0.301
11430SOL    HW239138   5.272   1.659   0.221
11431SOL     OW39139   4.467   0.628   1.405
11431SOL    HW139140   4.489   0.588   1.489
11431SOL    HW239141   4.429   0.556   1.354
11432SOL     OW39142   5.117   0.417   1.682
11432SOL    HW139143   5.120   0.483   1.753
11432SOL    HW239144   5.107   0.469   1.602
11433SOL     OW39145   4.693   0.835   1.573
11433SOL    HW139146   4.724   0.757   1.527
11433SOL    HW239147   4.643   0.884   1.508
11434SOL     OW39148   4.795   0.686   0.406
11434SOL    HW139149   4.821   0.674   0.498
11434SOL    HW239150   4.706   0.653   0.402
11435SOL     OW39151   3.831   0.850   0.765
11435SOL    HW139152   3.915   0.839   0.810
11435SOL    HW239153   3.783   0.914   0.817
11436SOL     OW39154   3.809   1.894   1.561
11436SOL    HW139155   3.793   1.883   1.655
11436SOL    HW239156   3.820   1.804   1.529
11437SOL     OW39157   4.574   0.378   0.216
11437SOL    HW139158   4.550   0.423   0.135
11437SOL    HW239159   4.581   0.286   0.192
11438SOL     OW39160   5.412   0.598   1.832
11438SOL    HW139161   5.385   0.664   1.769
11438SOL    HW239162   5.436   0.522   1.779
11439SOL     OW39163   5.118   1.141   0.567
11439SOL    HW139164   5.190   1.145   0.504
11439SOL    HW239165   5.058   1.209   0.539
11440SOL     OW39166   4.156   0.253   0.919
11440SOL    HW139167   4.207   0.240   0.999
11440SOL    HW239168   4.198   0.327   0.875
11441SOL     OW39169   4.712   1.681   0.442
11441SOL    HW139170   4.655   1.614   0.405
11441SOL    HW239171   4.736   1.647   0.528
11442SOL     OW39172   4.125   1.799   0.833
11442SOL    HW139173   4.156   1.728   0.777
11442SOL    HW239174   4.204   1.838   0.869
11443SOL     OW39175   5.511   1.021   0.900
11443SOL    HW139176   5.476   1.003   0.813
11443SOL    HW239177   5.435   1.024   0.957
11444SOL     OW39178   4.933   1.560   1.554
11444SOL    HW139179   4.936   1.487   1.617
11444SOL    HW239180   4.870   1.532   1.488
11445SOL     OW39181   5.200   0.776   0.709
11445SOL    HW139182   5.201   0.734   0.796
11445SOL    HW239183   5.283   0.823   0.704
11446SOL     OW39184   4.837   1.773   0.217
11446SOL    HW139185   4.801   1.734   0.296
11446SOL    HW239186   4.851   1.699   0.158
11447SOL     OW39187   3.923   0.284   1.458
11447SOL    HW139188   3.897   0.370   1.426
11447SOL    HW239189   3.844   0.250   1.501
11448SOL     OW39190   5.365   1.379   0.122
11448SOL    HW139191   5.326   1.463   0.099
11448SOL    HW239192   5.292   1.318   0.121
11449SOL     OW39193   4.316   1.768   0.400
11449SOL    HW139194   4.303   1.715   0.479
11449SOL    HW239195   4.352   1.706   0.336
11450SOL     OW39196   4.023   1.811   1.178
11450SOL    HW139197   4.055   1.736   1.228
11450SOL    HW239198   3.976   1.772   1.104
11451SOL     OW39199   4.643   1.672   0.934
11451SOL    HW139200   4.710   1.611   0.902
11451SOL    HW239201   4.566   1.655   0.879
11452SOL     OW39202   4.103   0.681   0.491
11452SOL    HW139203   4.117   0.587   0.499
11452SOL    HW239204   4.008   0.691   0.498
11453SOL     OW39205   5.273   0.199   1.754
11453SOL    HW139206   5.272   0.231   1.845
11453SOL    HW239207   5.208   0.253   1.709
11454SOL     OW39208   4.350   0.117   0.114
11454SOL    HW139209   4.446   0.114   0.116
11454SOL    HW239210   4.327   0.105   0.022
11455SOL     OW39211   4.544   0.278   1.761
11455SOL    HW139212   4.600   0.201   1.751
11455SOL    HW239213   4.553   0.302   1.853
11456SOL     OW39214   4.604   1.598   1.242
11456SOL    HW139215   4.621   1.609   1.148
11456SOL    HW239216   4.668   1.532   1.270
11457SOL     OW39217   5.078   0.560   1.453
11457SOL    HW139218   5.079   0.492   1.386
11457SOL    HW239219   5.121   0.635   1.411
11458SOL     OW39220   4.650   0.506   0.931
11458SOL    HW139221   4.634   0.475   0.842
11458SOL    HW239222   4.649   0.427   0.985
11459SOL     OW39223   4.255   0.059   0.510
11459SOL    HW139224   4.171   0.039   0.551
11459SOL    HW239225   4.234   0.119   0.438
11460SOL     OW39226   5.136   1.226   0.107
11460SOL    HW139227   5.171   1.148   0.151
11460SOL    HW239228   5.087   1.191   0.033
11461SOL     OW39229   4.004   0.048   0.232
11461SOL    HW139230   4.060   0.118   0.266
11461SOL    HW239231   3.915   0.079   0.246
11462SOL     OW39232   4.656   0.262   0.462
11462SOL    HW139233   4.630   0.305   0.381
11462SOL    HW239234   4.723   0.199   0.435
11463SOL     OW39235   4.805   0.599   1.399
11463SOL    HW139236   4.780   0.521   1.349
11463SOL    HW239237   4.896   0.582   1.425
11464SOL     OW39238   4.914   1.621   0.826
11464SOL    HW139239   4.942   1.654   0.740
11464SOL    HW239240   4.880   1.534   0.808
11465SOL     OW39241   4.970   1.794   0.613
11465SOL    HW139242   5.006   1.862   0.557
11465SOL    HW239243   4.899   1.836   0.661
11466SOL     OW39244   4.828   0.506   9.977
11466SOL    HW139245   4.734   0.497   9.993
11466SOL    HW239246   4.865   0.531   0.062
11467SOL     OW39247   3.849   0.541   1.386
11467SOL    HW139248   3.935   0.558   1.347
11467SOL    HW239249   3.838   0.611   1.450
11468SOL     OW39250   4.281   0.196   1.159
11468SOL    HW139251   4.336   0.118   1.153
11468SOL    HW239252   4.197   0.164   1.191
11469SOL     OW39253   4.613   0.463   0.653
11469SOL    HW139254   4.574   0.519   0.586
11469SOL    HW239255   4.633   0.381   0.609
11470SOL     OW39256   4.686   0.080   0.815
11470SOL    HW139257   4.628   0.089   0.740
11470SOL    HW239258   4.685   9.987   0.836
11471SOL     OW39259   5.123   1.150   0.843
11471SOL    HW139260   5.030   1.127   0.850
11471SOL    HW239261   5.141   1.148   0.749
11472SOL     OW39262   5.200   0.651   0.960
11472SOL    HW139263   5.155   0.584   1.011
11472SOL    HW239264   5.272   0.680   1.015
11473SOL     OW39265   5.592   0.788   0.350
11473SOL    HW139266   5.640   0.744   0.420
11473SOL    HW239267   5.536   0.720   0.313
11474SOL     OW39268   4.106   1.496   0.187
11474SOL    HW139269   4.062   1.433   0.245
11474SOL    HW239270   4.154   1.442   0.125
11475SOL     OW39271   5.455   1.292   0.632
11475SOL    HW139272   5.549   1.294   0.652
11475SOL    HW239273   5.425   1.381   0.652
11476SOL     OW39274   5.239   0.599   0.093
11476SOL    HW139275   5.151   0.599   0.130
11476SOL    HW239276   5.242   0.676   0.037
11477SOL     OW39277   4.196   0.239   0.300
11477SOL    HW139278   4.255   0.193   0.241
11477SOL    HW239279   4.179   0.322   0.256
11478SOL     OW39280   4.754   1.412   1.392
11478SOL    HW139281   4.675   1.362   1.415
11478SOL    HW239282   4.824   1.346   1.390
11479SOL     OW39283   5.327   1.620   1.673
11479SOL    HW139284   5.320   1.567   1.594
11479SOL    HW239285   5.392   1.576   1.726
11480SOL     OW39286   4.856   1.215   1.072
11480SOL    HW139287   4.761   1.211   1.089
11480SOL    HW239288   4.864   1.190   0.980
11481SOL     OW39289   5.280   1.049   1.047
11481SOL    HW139290   5.216   1.060   1.118
11481SOL    HW239291   5.233   1.077   0.968
11482SOL     OW39292   4.576   0.183   1.384
11482SOL    HW139293   4.577   0.220   1.296
11482SOL    HW239294   4.662   0.204   1.420
11483SOL     OW39295   4.711   1.079   1.722
11483SOL    HW139296   4.619   1.085   1.746
11483SOL    HW239297   4.715   1.005   1.662
11484SOL     OW39298   4.415   1.019   0.416
11484SOL    HW139299   4.420   1.031   0.511
11484SOL    HW239300   4.506   1.002   0.390
11485SOL     OW39301   4.149   0.842   1.260
11485SOL    HW139302   4.204   0.858   1.337
11485SOL    HW239303   4.126   0.749   1.266
11486SOL     OW39304   4.137   1.150   0.521
11486SOL    HW139305   4.094   1.190   0.445
11486SOL    HW239306   4.191   1.080   0.484
11487SOL     OW39307   4.256   0.500   0.838
11487SOL    HW139308   4.276   0.544   0.755
11487SOL    HW239309   4.318   0.539   0.901
11488SOL     OW39310   4.939   1.340   0.512
11488SOL    HW139311   4.984   1.420   0.485
11488SOL    HW239312   4.847   1.355   0.488
11489SOL     OW39313   4.988   1.458   1.120
11489SOL    HW139314   5.035   1.454   1.203
11489SOL    HW239315   4.937   1.377   1.117
11490SOL     OW39316   5.199   0.673   0.447
11490SOL    HW139317   5.191   0.706   0.537
11490SOL    HW239318   5.144   0.732   0.395
11491SOL     OW39319   4.183   0.721   1.654
11491SOL    HW139320   4.231   0.766   1.585
11491SOL    HW239321   4.203   0.629   1.642
11492SOL     OW39322   5.345   0.810   1.653
11492SOL    HW139323   5.269   0.800   1.596
11492SOL    HW239324   5.406   0.863   1.601
11493SOL     OW39325   4.734   0.071   1.758
11493SOL    HW139326   4.791   0.148   1.750
11493SOL    HW239327   4.755   0.017   1.682
11494SOL     OW39328   4.285   0.054   1.753
11494SOL    HW139329   4.308   0.104   1.675
11494SOL    HW239330   4.200   0.088   1.780
11495SOL     OW39331   4.312   0.889   1.043
11495SOL    HW139332   4.323   0.984   1.038
11495SOL    HW239333   4.256   0.874   1.119
11496SOL     OW39334   5.005   0.847   1.036
11496SOL    HW139335   4.917   0.815   1.014
11496SOL    HW239336   5.063   0.779   1.003
11497SOL     OW39337   4.939   0.523   0.227
11497SOL    HW139338   4.984   0.465   0.289
11497SOL    HW239339   4.892   0.585   0.282
11498SOL     OW39340   4.006   0.166   1.214
11498SOL    HW139341   3.985   0.197   1.302
11498SOL    HW239342   3.939   0.101   1.194
11499SOL     OW39343   4.412   0.620   1.030
11499SOL    HW139344   4.503   0.607   1.002
11499SOL    HW239345   4.400   0.715   1.028
11500SOL     OW39346   5.465   0.956   1.859
11500SOL    HW139347   5.426   0.892   1.799
11500SOL    HW239348   5.426   0.936   1.944
11501SOL     OW39349   4.006   0.036   0.644
11501SOL    HW139350   3.989   0.129   0.655
11501SOL    HW239351   4.018   0.003   0.733
11502SOL     OW39352   5.331   0.437   0.407
11502SOL    HW139353   5.273   0.369   0.441
11502SOL    HW239354   5.284   0.519   0.423
11503SOL     OW39355   4.742   0.756   0.995
11503SOL    HW139356   4.714   0.766   1.086
11503SOL    HW239357   4.721   0.665   0.973
11504SOL     OW39358   4.680   1.531   1.752
11504SOL    HW139359   4.658   1.581   1.674
11504SOL    HW239360   4.732   1.458   1.721
11505SOL     OW39361   5.594   1.549   1.530
11505SOL    HW139362   5.517   1.508   1.489
11505SOL    HW239363   5.597   1.511   1.618
11506SOL     OW39364   4.150   0.950   1.804
11506SOL    HW139365   4.192   0.930   1.888
11506SOL    HW239366   4.155   0.868   1.755
11507SOL     OW39367   5.330   0.227   0.153
11507SOL    HW139368   5.244   0.192   0.176
11507SOL    HW239369   5.317   0.321   0.146
11508SOL     OW39370   4.768   1.391   0.785
11508SOL    HW139371   4.805   1.305   0.767
11508SOL    HW239372   4.711   1.409   0.711
11509SOL     OW39373   4.053   0.836   0.930
11509SOL    HW139374   4.148   0.848   0.936
11509SOL    HW239375   4.039   0.745   0.955
11510SOL     OW39376   4.039   0.568   0.991
11510SOL    HW139377   3.977   0.494   0.993
11510SOL    HW239378   4.109   0.539   0.933
11511SOL     OW39379   4.876   0.305   1.736
11511SOL    HW139380   4.831   0.383   1.769
11511SOL    HW239381   4.964   0.336   1.715
11512SOL     OW39382   4.854   0.203   1.468
11512SOL    HW139383   4.864   0.249   1.551
11512SOL    HW239384   4.895   0.261   1.403
11513SOL     OW39385   3.729   1.314   0.113
11513SOL    HW139386   3.789   1.300   0.040
11513SOL    HW239387   3.735   1.233   0.165
11514SOL     OW39388   3.874   1.751   0.931
11514SOL    HW139389   3.837   1.677   0.882
11514SOL    HW239390   3.963   1.759   0.899
11515SOL     OW39391   4.652   0.772   1.255
11515SOL    HW139392   4.723   0.722   1.295
11515SOL    HW239393   4.572   0.730   1.287
11516SOL     OW39394   3.695   0.511   1.158
11516SOL    HW139395   3.750   0.457   1.100
11516SOL    HW239396   3.751   0.528   1.233
11517SOL     OW39397   3.925   0.539   1.740
11517SOL    HW139398   4.002   0.509   1.692
11517SOL    HW239399   3.885   0.604   1.683
11518SOL     OW39400   4.537   0.581   0.401
11518SOL    HW139401   4.551   0.506   0.344
11518SOL    HW239402   4.456   0.621   0.369
11519SOL     OW39403   5.358   0.629   1.184
11519SOL    HW139404   5.282   0.572   1.187
11519SOL    HW239405   5.433   0.569   1.189
11520SOL     OW39406   3.999   1.593   1.835
11520SOL    HW139407   3.926   1.635   1.879
11520SOL    HW239408   3.972   1.502   1.824
11521SOL     OW39409   4.336   0.453   1.239
11521SOL    HW139410   4.330   0.361   1.215
11521SOL    HW239411   4.370   0.496   1.161
11522SOL     OW39412   4.563   1.676   1.516
11522SOL    HW139413   4.591   1.640   1.432
11522SOL    HW239414   4.496   1.741   1.493
11523SOL     OW39415   4.152   0.469   0.152
11523SOL    HW139416   4.210   0.536   0.188
11523SOL    HW239417   4.064   0.499   0.174
11524SOL     OW39418   3.881   1.110   1.469
11524SOL    HW139419   3.877   1.046   1.540
11524SOL    HW239420   3.882   1.057   1.389
11525SOL     OW39421   5.043   1.058   1.201
11525SOL    HW139422   5.032   0.976   1.152
11525SOL    HW239423   4.978   1.117   1.162
11526SOL     OW39424   5.015   0.835   0.303
11526SOL    HW139425   4.940   0.791   0.343
11526SOL    HW239426   4.976   0.890   0.235
11527SOL     OW39427   5.502   1.706   1.159
11527SOL    HW139428   5.536   1.732   1.074
11527SOL    HW239429   5.458   1.623   1.142
11528SOL     OW39430   4.941   1.727   1.075
11528SOL    HW139431   4.925   1.704   0.983
11528SOL    HW239432   4.965   1.644   1.116
11529SOL     OW39433   3.807   1.399   1.022
11529SOL    HW139434   3.882   1.438   1.067
11529SOL    HW239435   3.760   1.351   1.091
11530SOL     OW39436   4.370   1.650   1.715
11530SOL    HW139437   4.308   1.709   1.672
11530SOL    HW239438   4.448   1.654   1.661
11531SOL     OW39439   4.624   0.118   0.146
11531SOL    HW139440   4.710   0.142   0.112
11531SOL    HW239441   4.641   0.045   0.205
11532SOL     OW39442   5.426   0.153   0.519
11532SOL    HW139443   5.468   0.127   0.437
11532SOL    HW239444   5.332   0.141   0.503
11533SOL     OW39445   5.119   1.576   0.512
11533SOL    HW139446   5.162   1.599   0.430
11533SOL    HW239447   5.063   1.651   0.532
11534SOL     OW39448   3.798   1.879   1.840
11534SOL    HW139449   3.757   1.795   1.862
11534SOL    HW239450   3.873   1.885   1.899
11535SOL     OW39451   4.978   0.922   0.657
11535SOL    HW139452   5.055   0.870   0.680
11535SOL    HW239453   5.012   0.993   0.603
11536SOL     OW39454   4.502   1.295   1.448
11536SOL    HW139455   4.450   1.293   1.528
11536SOL    HW239456   4.453   1.352   1.389
11537SOL     OW39457   4.421   1.618   0.191
11537SOL    HW139458   4.418   1.569   0.109
11537SOL    HW239459   4.471   1.563   0.251
11538SOL     OW39460   5.390   1.803   1.397
11538SOL    HW139461   5.428   1.774   1.315
11538SOL    HW239462   5.384   1.724   1.451
11539SOL     OW39463   5.629   0.101   0.993
11539SOL    HW139464   5.701   0.085   0.932
11539SOL    HW239465   5.571   0.161   0.947
11540SOL     OW39466   3.963   0.304   0.701
11540SOL    HW139467   3.880   0.351   0.702
11540SOL    HW239468   3.989   0.299   0.793
11541SOL     OW39469   4.923   1.599   0.004
11541SOL    HW139470   4.929   1.529   0.069
11541SOL    HW239471   4.852   1.573   9.946
11542SOL     OW39472   4.554   1.015   1.409
11542SOL    HW139473   4.588   0.992   1.323
11542SOL    HW239474   4.545   1.110   1.406
11543SOL     OW39475   4.679   0.945   0.352
11543SOL    HW139476   4.736   0.980   0.284
11543SOL    HW239477   4.716   0.858   0.372
11544SOL     OW39478   5.216   1.603   0.045
11544SOL    HW139479   5.121   1.590   0.050
11544SOL    HW239480   5.236   1.592   9.952
11545SOL     OW39481   4.844   1.108   0.811
11545SOL    HW139482   4.756   1.072   0.824
11545SOL    HW239483   4.885   1.048   0.749
11546SOL     OW39484   5.508   0.310   1.419
11546SOL    HW139485   5.514   0.376   1.350
11546SOL    HW239486   5.516   0.226   1.374
11547SOL     OW39487   3.980   1.315   0.354
11547SOL    HW139488   3.900   1.264   0.337
11547SOL    HW239489   3.961   1.362   0.436
11548SOL     OW39490   3.891   0.973   1.703
11548SOL    HW139491   3.818   0.983   1.764
11548SOL    HW239492   3.969   0.976   1.758
11549SOL     OW39493   4.362   0.240   1.559
11549SOL    HW139494   4.416   0.225   1.482
11549SOL    HW239495   4.425   0.264   1.628
11550SOL     OW39496   3.805   0.326   0.005
11550SOL    HW139497   3.749   0.281   9.941
11550SOL    HW239498   3.894   0.315   9.972
11551SOL     OW39499   5.177   0.845   1.423
11551SOL    HW139500   5.106   0.896   1.384
11551SOL    HW239501   5.253   0.863   1.368
11552SOL     OW39502   4.930   1.408   0.190
11552SOL    HW139503   4.840   1.374   0.183
11552SOL    HW239504   4.985   1.331   0.175
11553SOL     OW39505   4.335   0.855   1.462
11553SOL    HW139506   4.401   0.923   1.454
11553SOL    HW239507   4.381   0.773   1.442
11554SOL     OW39508   5.216   1.817   0.934
11554SOL    HW139509   5.134   1.772   0.912
11554SOL    HW239510   5.270   1.749   0.974
11555SOL     OW39511   4.502   0.536   1.661
11555SOL    HW139512   4.538   0.593   1.729
11555SOL    HW239513   4.520   0.447   1.692
11556SOL     OW39514   4.090   1.744   1.615
11556SOL    HW139515   4.026   1.724   1.547
11556SOL    HW239516   4.061   1.693   1.691
11557SOL     OW39517   5.393   0.891   1.254
11557SOL    HW139518   5.389   0.800   1.225
11557SOL    HW239519   5.371   0.942   1.175
11558SOL     OW39520   4.318   0.750   0.649
11558SOL    HW139521   4.384   0.729   0.584
11558SOL    HW239522   4.235   0.739   0.604
11559SOL     OW39523   5.479   0.369   1.685
11559SOL    HW139524   5.492   0.359   1.591
11559SOL    HW239525   5.410   0.306   1.706
11560SOL     OW39526   5.501   0.975   1.493
11560SOL    HW139527   5.487   1.070   1.498
11560SOL    HW239528   5.471   0.952   1.405
11561SOL     OW39529   4.658   1.366   0.156
11561SOL    HW139530   4.618   1.397   0.237
11561SOL    HW239531   4.590   1.377   0.090
11562SOL     OW39532   4.390   1.876   0.858
11562SOL    HW139533   4.442   1.920   0.791
11562SOL    HW239534   4.395   1.783   0.834
11563SOL     OW39535   4.612   0.974   0.877
11563SOL    HW139536   4.651   0.895   0.913
11563SOL    HW239537   4.593   1.028   0.954
11564SOL     OW39538   4.844   0.999   0.125
11564SOL    HW139539   4.760   1.030   0.092
11564SOL    HW239540   4.908   1.029   0.060
11565SOL     OW39541   5.559   1.518   0.839
11565SOL    HW139542   5.469   1.511   0.807
11565SOL    HW239543   5.575   1.434   0.883
11566SOL     OW39544   3.905   1.336   1.860
11566SOL    HW139545   3.810   1.345   1.872
11566SOL    HW239546   3.937   1.312   1.947
11567SOL     OW39547   3.834   1.224   0.691
11567SOL    HW139548   3.801   1.188   0.774
11567SOL    HW239549   3.907   1.167   0.667
11568SOL     OW39550   4.293   1.375   1.667
11568SOL    HW139551   4.343   1.361   1.748
11568SOL    HW239552   4.303   1.469   1.650
11569SOL     OW39553   5.536   0.089   1.259
11569SOL    HW139554   5.467   0.024   1.252
11569SOL    HW239555   5.574   0.094   1.171
11570SOL     OW39556   4.144   0.415   0.522
11570SOL    HW139557   4.166   0.347   0.459
11570SOL    HW239558   4.085   0.372   0.584
11571SOL     OW39559   5.391   1.469   1.112
11571SOL    HW139560   5.324   1.428   1.057
11571SOL    HW239561   5.427   1.396   1.163
11572SOL     OW39562   4.090   0.574   1.261
11572SOL    HW139563   4.172   0.526   1.271
11572SOL    HW239564   4.072   0.570   1.167
11573SOL     OW39565   4.354   1.480   1.307
11573SOL    HW139566   4.272   1.529   1.307
11573SOL    HW239567   4.419   1.543   1.275
11574SOL     OW39568   5.078   0.139   0.249
11574SOL    HW139569   5.009   0.073   0.243
11574SOL    HW239570   5.111   0.132   0.338
11575SOL     OW39571   5.052   0.449   0.653
11575SOL    HW139572   4.996   0.527   0.658
11575SOL    HW239573   4.992   0.378   0.633
11576SOL     OW39574   5.414   0.255   0.918
11576SOL    HW139575   5.361   0.257   0.998
11576SOL    HW239576   5.381   0.328   0.866
11577SOL     OW39577   3.793   1.074   0.251
11577SOL    HW139578   3.852   1.061   0.177
11577SOL    HW239579   3.779   0.986   0.285
11578SOL     OW39580   3.949   0.590   2.007
11578SOL    HW139581   3.913   0.675   2.032
11578SOL    HW239582   3.939   0.586   1.912
11579SOL     OW39583   3.903   0.350   2.894
11579SOL    HW139584   3.949   0.298   2.959
11579SOL    HW239585   3.849   0.287   2.846
11580SOL     OW39586   4.318   1.306   2.928
11580SOL    HW139587   4.254   1.265   2.870
11580SOL    HW239588   4.275   1.305   3.014
11581SOL     OW39589   5.326   1.507   2.592
11581SOL    HW139590   5.268   1.469   2.658
11581SOL    HW239591   5.270   1.519   2.515
11582SOL     OW39592   4.833   0.693   2.632
11582SOL    HW139593   4.870   0.758   2.573
11582SOL    HW239594   4.786   0.632   2.574
11583SOL     OW39595   5.528   0.616   2.082
11583SOL    HW139596   5.493   0.612   1.993
11583SOL    HW239597   5.454   0.591   2.138
11584SOL     OW39598   4.548   1.155   2.960
11584SOL    HW139599   4.541   1.103   3.040
11584SOL    HW239600   4.466   1.203   2.955
11585SOL     OW39601   4.432   1.032   2.516
11585SOL    HW139602   4.494   1.012   2.586
11585SOL    HW239603   4.357   1.071   2.561
11586SOL     OW39604   4.035   1.527   2.885
11586SOL    HW139605   3.964   1.478   2.844
11586SOL    HW239606   4.028   1.615   2.848
11587SOL     OW39607   5.184   1.556   3.323
11587SOL    HW139608   5.097   1.568   3.362
11587SOL    HW239609   5.181   1.468   3.286
11588SOL     OW39610   4.168   0.330   3.327
11588SOL    HW139611   4.231   0.262   3.351
11588SOL    HW239612   4.088   0.307   3.374
11589SOL     OW39613   5.352   0.446   2.607
11589SOL    HW139614   5.264   0.450   2.570
11589SOL    HW239615   5.374   0.537   2.628
11590SOL     OW39616   3.908   1.788   2.349
11590SOL    HW139617   3.946   1.805   2.435
11590SOL    HW239618   3.982   1.761   2.294
11591SOL     OW39619   3.947   1.445   2.399
11591SOL    HW139620   3.896   1.503   2.455
11591SOL    HW239621   3.919   1.357   2.424
11592SOL     OW39622   4.022   1.048   2.802
11592SOL    HW139623   4.056   0.962   2.781
11592SOL    HW239624   3.930   1.045   2.775
11593SOL     OW39625   4.288   1.780   3.318
11593SOL    HW139626   4.213   1.759   3.374
11593SOL    HW239627   4.249   1.821   3.241
11594SOL     OW39628   4.329   0.966   2.032
11594SOL    HW139629   4.375   1.005   1.958
11594SOL    HW239630   4.368   1.006   2.109
11595SOL     OW39631   5.422   0.080   3.351
11595SOL    HW139632   5.438   0.105   3.260
11595SOL    HW239633   5.334   0.043   3.351
11596SOL     OW39634   5.534   1.766   2.191
11596SOL    HW139635   5.612   1.738   2.238
11596SOL    HW239636   5.560   1.846   2.145
11597SOL     OW39637   3.764   1.639   1.971
11597SOL    HW139638   3.730   1.550   1.959
11597SOL    HW239639   3.733   1.665   2.058
11598SOL     OW39640   5.436   0.997   2.547
11598SOL    HW139641   5.505   0.932   2.559
11598SOL    HW239642   5.416   0.994   2.453
11599SOL     OW39643   5.378   1.115   2.284
11599SOL    HW139644   5.459   1.094   2.238
11599SOL    HW239645   5.396   1.196   2.331
11600SOL     OW39646   3.901   0.771   3.410
11600SOL    HW139647   3.981   0.815   3.385
11600SOL    HW239648   3.830   0.825   3.373
11601SOL     OW39649   4.308   1.440   2.607
11601SOL    HW139650   4.274   1.352   2.624
11601SOL    HW239651   4.296   1.451   2.512
11602SOL     OW39652   5.083   1.291   3.235
11602SOL    HW139653   5.052   1.211   3.192
11602SOL    HW239654   5.084   1.270   3.328
11603SOL     OW39655   4.510   9.947   2.359
11603SOL    HW139656   4.499   0.038   2.330
11603SOL    HW239657   4.472   9.895   2.289
11604SOL     OW39658   3.924   1.006   3.112
11604SOL    HW139659   3.977   0.927   3.125
11604SOL    HW239660   3.929   1.022   3.018
11605SOL     OW39661   5.263   0.992   2.065
11605SOL    HW139662   5.188   0.939   2.091
11605SOL    HW239663   5.295   1.029   2.148
11606SOL     OW39664   5.006   1.839   3.477
11606SOL    HW139665   4.947   1.897   3.428
11606SOL    HW239666   4.982   1.751   3.449
11607SOL     OW39667   5.136   1.411   2.779
11607SOL    HW139668   5.074   1.419   2.851
11607SOL    HW239669   5.132   1.318   2.755
11608SOL     OW39670   5.372   1.835   2.409
11608SOL    HW139671   5.415   1.789   2.337
11608SOL    HW239672   5.359   1.768   2.476
11609SOL     OW39673   4.301   0.700   2.122
11609SOL    HW139674   4.312   0.789   2.089
11609SOL    HW239675   4.246   0.710   2.200
11610SOL     OW39676   4.994   0.405   2.791
11610SOL    HW139677   4.902   0.382   2.789
11610SOL    HW239678   5.035   0.338   2.846
11611SOL     OW39679   5.269   1.677   2.161
11611SOL    HW139680   5.364   1.689   2.156
11611SOL    HW239681   5.241   1.664   2.071
11612SOL     OW39682   4.539   0.482   3.283
11612SOL    HW139683   4.570   0.540   3.352
11612SOL    HW239684   4.446   0.504   3.273
11613SOL     OW39685   5.198   0.482   3.530
11613SOL    HW139686   5.138   0.508   3.600
11613SOL    HW239687   5.197   0.386   3.532
11614SOL     OW39688   4.714   0.439   3.074
11614SOL    HW139689   4.666   0.451   3.156
11614SOL    HW239690   4.678   0.507   3.016
11615SOL     OW39691   4.772   0.704   2.245
11615SOL    HW139692   4.762   0.660   2.330
11615SOL    HW239693   4.698   0.673   2.193
11616SOL     OW39694   3.840   1.926   3.477
11616SOL    HW139695   3.827   1.894   3.566
11616SOL    HW239696   3.762   1.897   3.429
11617SOL     OW39697   4.586   0.308   2.030
11617SOL    HW139698   4.577   0.393   2.072
11617SOL    HW239699   4.678   0.285   2.041
11618SOL     OW39700   5.388   0.620   3.689
11618SOL    HW139701   5.368   0.706   3.654
11618SOL    HW239702   5.337   0.560   3.634
11619SOL     OW39703   5.128   1.144   2.425
11619SOL    HW139704   5.210   1.130   2.379
11619SOL    HW239705   5.078   1.204   2.369
11620SOL     OW39706   4.736   1.479   2.290
11620SOL    HW139707   4.714   1.554   2.234
11620SOL    HW239708   4.685   1.493   2.370
11621SOL     OW39709   5.553   1.130   2.753
11621SOL    HW139710   5.515   1.085   2.677
11621SOL    HW239711   5.493   1.111   2.825
11622SOL     OW39712   4.928   1.566   3.437
11622SOL    HW139713   4.911   1.513   3.515
11622SOL    HW239714   4.872   1.528   3.369
11623SOL     OW39715   4.079   0.978   2.164
11623SOL    HW139716   4.158   0.976   2.110
11623SOL    HW239717   4.067   0.888   2.192
11624SOL     OW39718   5.186   0.721   2.548
11624SOL    HW139719   5.140   0.638   2.535
11624SOL    HW239720   5.194   0.730   2.643
11625SOL     OW39721   4.190   1.274   3.611
11625SOL    HW139722   4.164   1.298   3.522
11625SOL    HW239723   4.108   1.267   3.659
11626SOL     OW39724   4.861   1.793   2.052
11626SOL    HW139725   4.779   1.770   2.094
11626SOL    HW239726   4.888   1.714   2.005
11627SOL     OW39727   3.897   0.287   3.378
11627SOL    HW139728   3.884   0.375   3.343
11627SOL    HW239729   3.835   0.280   3.451
11628SOL     OW39730   4.142   1.747   2.197
11628SOL    HW139731   4.213   1.756   2.259
11628SOL    HW239732   4.155   1.661   2.158
11629SOL     OW39733   5.240   0.127   2.294
11629SOL    HW139734   5.180   0.107   2.223
11629SOL    HW239735   5.251   0.222   2.290
11630SOL     OW39736   4.085   1.812   3.119
11630SOL    HW139737   4.065   1.720   3.134
11630SOL    HW239738   4.089   1.820   3.024
11631SOL     OW39739   4.055   0.737   2.283
11631SOL    HW139740   3.982   0.675   2.294
11631SOL    HW239741   4.076   0.766   2.371
11632SOL     OW39742   5.302   0.211   3.602
11632SOL    HW139743   5.280   0.247   3.688
11632SOL    HW239744   5.302   0.117   3.615
11633SOL     OW39745   4.425   0.073   1.996
11633SOL    HW139746   4.490   0.143   1.989
11633SOL    HW239747   4.386   0.067   1.908
11634SOL     OW39748   4.450   0.214   3.647
11634SOL    HW139749   4.539   0.181   3.659
11634SOL    HW239750   4.458   0.309   3.651
11635SOL     OW39751   4.615   1.545   3.081
11635SOL    HW139752   4.611   1.513   2.991
11635SOL    HW239753   4.674   1.484   3.125
11636SOL     OW39754   5.143   0.576   3.267
11636SOL    HW139755   5.166   0.546   3.355
11636SOL    HW239756   5.102   0.662   3.281
11637SOL     OW39757   4.561   1.448   2.820
11637SOL    HW139758   4.639   1.420   2.772
11637SOL    HW239759   4.509   1.368   2.832
11638SOL     OW39760   4.031   0.093   2.076
11638SOL    HW139761   4.053   0.126   1.989
11638SOL    HW239762   4.113   0.101   2.126
11639SOL     OW39763   4.823   0.621   3.333
11639SOL    HW139764   4.752   0.650   3.391
11639SOL    HW239765   4.804   0.665   3.249
11640SOL     OW39766   5.068   1.682   2.718
11640SOL    HW139767   5.036   1.707   2.631
11640SOL    HW239768   5.080   1.587   2.713
11641SOL     OW39769   4.207   1.182   2.644
11641SOL    HW139770   4.153   1.138   2.709
11641SOL    HW239771   4.171   1.155   2.560
11642SOL     OW39772   4.986   1.775   2.470
11642SOL    HW139773   5.022   1.844   2.414
11642SOL    HW239774   4.896   1.803   2.487
11643SOL     OW39775   4.790   0.522   1.874
11643SOL    HW139776   4.729   0.596   1.872
11643SOL    HW239777   4.830   0.526   1.961
11644SOL     OW39778   3.889   0.536   3.254
11644SOL    HW139779   3.971   0.537   3.206
11644SOL    HW239780   3.890   0.616   3.306
11645SOL     OW39781   4.255   0.161   3.041
11645SOL    HW139782   4.295   0.249   3.041
11645SOL    HW239783   4.168   0.174   3.077
11646SOL     OW39784   4.782   0.111   2.602
11646SOL    HW139785   4.752   0.187   2.552
11646SOL    HW239786   4.788   0.142   2.692
11647SOL     OW39787   5.145   1.142   2.723
11647SOL    HW139788   5.102   1.062   2.754
11647SOL    HW239789   5.148   1.134   2.628
11648SOL     OW39790   5.160   0.658   2.821
11648SOL    HW139791   5.101   0.583   2.819
11648SOL    HW239792   5.223   0.637   2.890
11649SOL     OW39793   5.574   0.807   2.280
11649SOL    HW139794   5.657   0.801   2.327
11649SOL    HW239795   5.582   0.744   2.208
11650SOL     OW39796   4.163   1.515   2.049
11650SOL    HW139797   4.111   1.441   2.080
11650SOL    HW239798   4.119   1.544   1.969
11651SOL     OW39799   5.464   1.326   2.426
11651SOL    HW139800   5.547   1.295   2.462
11651SOL    HW239801   5.427   1.380   2.496
11652SOL     OW39802   5.120   0.577   1.913
11652SOL    HW139803   5.068   0.545   1.987
11652SOL    HW239804   5.209   0.550   1.932
11653SOL     OW39805   4.307   0.227   2.197
11653SOL    HW139806   4.350   0.178   2.127
11653SOL    HW239807   4.265   0.301   2.153
11654SOL     OW39808   5.474   1.189   3.398
11654SOL    HW139809   5.569   1.192   3.387
11654SOL    HW239810   5.460   1.191   3.492
11655SOL     OW39811   4.782   1.397   3.264
11655SOL    HW139812   4.691   1.367   3.274
11655SOL    HW239813   4.835   1.319   3.276
11656SOL     OW39814   5.339   1.675   3.520
11656SOL    HW139815   5.283   1.624   3.462
11656SOL    HW239816   5.426   1.636   3.509
11657SOL     OW39817   4.810   1.244   2.943
11657SOL    HW139818   4.723   1.206   2.959
11657SOL    HW239819   4.809   1.266   2.850
11658SOL     OW39820   5.345   1.090   2.927
11658SOL    HW139821   5.318   1.142   3.003
11658SOL    HW239822   5.275   1.102   2.863
11659SOL     OW39823   4.584   0.134   3.217
11659SOL    HW139824   4.611   0.100   3.132
11659SOL    HW239825   4.606   0.227   3.215
11660SOL     OW39826   4.468   1.085   2.241
11660SOL    HW139827   4.452   1.065   2.333
11660SOL    HW239828   4.549   1.039   2.220
11661SOL     OW39829   4.081   0.777   3.113
11661SOL    HW139830   4.144   0.818   3.174
11661SOL    HW239831   4.103   0.684   3.116
11662SOL     OW39832   4.986   0.377   3.141
11662SOL    HW139833   5.033   0.450   3.183
11662SOL    HW239834   4.899   0.412   3.123
11663SOL     OW39835   3.789   1.604   3.171
11663SOL    HW139836   3.768   1.677   3.113
11663SOL    HW239837   3.884   1.595   3.165
11664SOL     OW39838   4.083   1.060   2.436
11664SOL    HW139839   4.080   1.045   2.342
11664SOL    HW239840   4.083   0.972   2.475
11665SOL     OW39841   4.996   1.358   2.258
11665SOL    HW139842   5.050   1.424   2.301
11665SOL    HW239843   4.906   1.389   2.272
11666SOL     OW39844   4.987   1.443   3.012
11666SOL    HW139845   5.019   1.414   3.098
11666SOL    HW239846   4.914   1.384   2.993
11667SOL     OW39847   5.352   0.645   2.331
11667SOL    HW139848   5.290   0.681   2.396
11667SOL    HW239849   5.420   0.712   2.325
11668SOL     OW39850   4.066   1.528   3.154
11668SOL    HW139851   4.050   1.511   3.061
11668SOL    HW239852   4.162   1.532   3.161
11669SOL     OW39853   5.312   0.852   3.565
11669SOL    HW139854   5.220   0.877   3.559
11669SOL    HW239855   5.344   0.856   3.475
11670SOL     OW39856   4.691   0.078   3.680
11670SOL    HW139857   4.744   0.150   3.714
11670SOL    HW239858   4.736   0.052   3.600
11671SOL     OW39859   4.226   9.964   3.561
11671SOL    HW139860   4.263   0.026   3.498
11671SOL    HW239861   4.235   0.008   3.646
11672SOL     OW39862   4.334   0.787   2.928
11672SOL    HW139863   4.270   0.806   2.860
11672SOL    HW239864   4.293   0.817   3.009
11673SOL     OW39865   5.050   0.913   2.851
11673SOL    HW139866   4.957   0.893   2.847
11673SOL    HW239867   5.093   0.829   2.841
11674SOL     OW39868   4.939   0.523   2.121
11674SOL    HW139869   4.942   0.448   2.181
11674SOL    HW239870   4.890   0.590   2.169
11675SOL     OW39871   3.979   0.191   3.120
11675SOL    HW139872   3.971   0.228   3.208
11675SOL    HW239873   3.896   0.146   3.106
11676SOL     OW39874   3.723   1.333   3.111
11676SOL    HW139875   3.773   1.272   3.165
11676SOL    HW239876   3.754   1.419   3.137
11677SOL     OW39877   4.546   0.611   2.923
11677SOL    HW139878   4.535   0.552   2.848
11677SOL    HW239879   4.477   0.677   2.912
11678SOL     OW39880   5.481   1.017   3.701
11678SOL    HW139881   5.432   0.954   3.648
11678SOL    HW239882   5.434   1.020   3.784
11679SOL     OW39883   4.078   0.132   2.547
11679SOL    HW139884   4.015   0.203   2.531
11679SOL    HW239885   4.027   0.052   2.536
11680SOL     OW39886   5.340   0.383   2.251
11680SOL    HW139887   5.429   0.361   2.277
11680SOL    HW239888   5.326   0.471   2.285
11681SOL     OW39889   4.787   0.836   2.864
11681SOL    HW139890   4.758   0.795   2.945
11681SOL    HW239891   4.791   0.764   2.801
11682SOL     OW39892   4.686   1.708   3.588
11682SOL    HW139893   4.690   1.681   3.496
11682SOL    HW239894   4.710   1.630   3.637
11683SOL     OW39895   5.593   1.604   3.442
11683SOL    HW139896   5.609   1.571   3.354
11683SOL    HW239897   5.665   1.569   3.495
11684SOL     OW39898   5.241   0.298   2.006
11684SOL    HW139899   5.178   0.233   2.036
11684SOL    HW239900   5.281   0.331   2.086
11685SOL     OW39901   4.969   0.801   1.866
11685SOL    HW139902   5.033   0.730   1.875
11685SOL    HW239903   4.910   0.771   1.797
11686SOL     OW39904   4.785   1.355   2.683
11686SOL    HW139905   4.794   1.266   2.648
11686SOL    HW239906   4.814   1.412   2.611
11687SOL     OW39907   4.881   0.384   3.467
11687SOL    HW139908   4.845   0.420   3.548
11687SOL    HW239909   4.874   0.455   3.404
11688SOL     OW39910   4.956   0.163   3.319
11688SOL    HW139911   4.932   0.224   3.389
11688SOL    HW239912   4.967   0.219   3.242
11689SOL     OW39913   4.691   0.755   3.122
11689SOL    HW139914   4.653   0.789   3.203
11689SOL    HW239915   4.617   0.717   3.075
11690SOL     OW39916   3.708   0.479   3.055
11690SOL    HW139917   3.763   0.442   2.986
11690SOL    HW239918   3.770   0.508   3.122
11691SOL     OW39919   3.963   0.556   3.587
11691SOL    HW139920   4.055   0.577   3.603
11691SOL    HW239921   3.932   0.625   3.528
11692SOL     OW39922   5.043   0.927   3.568
11692SOL    HW139923   4.985   1.000   3.587
11692SOL    HW239924   5.035   0.913   3.474
11693SOL     OW39925   4.545   0.572   2.155
11693SOL    HW139926   4.541   0.567   2.251
11693SOL    HW239927   4.463   0.614   2.130
11694SOL     OW39928   5.353   0.615   3.021
11694SOL    HW139929   5.330   0.565   3.099
11694SOL    HW239930   5.445   0.593   3.004
11695SOL     OW39931   3.918   1.538   3.584
11695SOL    HW139932   3.884   1.553   3.672
11695SOL    HW239933   3.946   1.446   3.585
11696SOL     OW39934   4.351   0.419   2.994
11696SOL    HW139935   4.352   0.395   2.901
11696SOL    HW239936   4.425   0.477   3.004
11697SOL     OW39937   4.641   1.707   3.312
11697SOL    HW139938   4.637   1.652   3.233
11697SOL    HW239939   4.605   1.791   3.284
11698SOL     OW39940   4.178   0.454   2.085
11698SOL    HW139941   4.232   0.533   2.082
11698SOL    HW239942   4.092   0.483   2.053
11699SOL     OW39943   3.863   1.157   3.331
11699SOL    HW139944   3.874   1.102   3.409
11699SOL    HW239945   3.886   1.100   3.258
11700SOL     OW39946   5.010   1.084   3.067
11700SOL    HW139947   5.034   1.019   3.002
11700SOL    HW239948   4.933   1.127   3.030
11701SOL     OW39949   5.037   0.852   2.144
11701SOL    HW139950   4.981   0.817   2.213
11701SOL    HW239951   5.004   0.813   2.063
11702SOL     OW39952   5.473   1.674   2.915
11702SOL    HW139953   5.518   1.648   2.835
11702SOL    HW239954   5.423   1.596   2.941
11703SOL     OW39955   4.975   1.731   2.974
11703SOL    HW139956   5.002   1.722   2.883
11703SOL    HW239957   4.969   1.641   3.006
11704SOL     OW39958   3.793   1.350   2.829
11704SOL    HW139959   3.764   1.337   2.919
11704SOL    HW239960   3.791   1.262   2.790
11705SOL     OW39961   4.414   1.657   3.545
11705SOL    HW139962   4.391   1.705   3.465
11705SOL    HW239963   4.503   1.685   3.566
11706SOL     OW39964   5.522   0.134   2.350
11706SOL    HW139965   5.559   0.152   2.263
11706SOL    HW239966   5.431   0.111   2.333
11707SOL     OW39967   5.148   1.566   2.383
11707SOL    HW139968   5.191   1.597   2.303
11707SOL    HW239969   5.085   1.635   2.404
11708SOL     OW39970   3.837   1.832   3.731
11708SOL    HW139971   3.814   1.741   3.752
11708SOL    HW239972   3.906   1.854   3.794
11709SOL     OW39973   4.991   0.911   2.495
11709SOL    HW139974   5.061   0.847   2.507
11709SOL    HW239975   5.035   0.988   2.460
11710SOL     OW39976   4.528   1.302   3.266
11710SOL    HW139977   4.487   1.321   3.350
11710SOL    HW239978   4.511   1.209   3.251
11711SOL     OW39979   4.395   1.672   1.993
11711SOL    HW139980   4.399   1.659   1.898
11711SOL    HW239981   4.330   1.609   2.023
11712SOL     OW39982   5.385   1.775   3.246
11712SOL    HW139983   5.314   1.717   3.217
11712SOL    HW239984   5.392   1.760   3.340
11713SOL     OW39985   5.549   0.147   2.824
11713SOL    HW139986   5.601   0.134   2.745
11713SOL    HW239987   5.460   0.163   2.792
11714SOL     OW39988   3.874   0.308   2.505
11714SOL    HW139989   3.872   0.396   2.467
11714SOL    HW239990   3.800   0.262   2.464
11715SOL     OW39991   4.924   1.564   1.910
11715SOL    HW139992   4.944   1.475   1.937
11715SOL    HW239993   4.842   1.556   1.861
11716SOL     OW39994   4.500   1.031   3.202
11716SOL    HW139995   4.418   0.980   3.195
11716SOL    HW239996   4.558   0.975   3.254
11717SOL     OW39997   4.696   0.961   2.156
11717SOL    HW139998   4.767   0.990   2.099
11717SOL    HW239999   4.729   0.880   2.196
11718SOL     OW40000   5.176   1.694   1.896
11718SOL    HW140001   5.093   1.647   1.885
11718SOL    HW240002   5.225   1.674   1.816
11719SOL     OW40003   4.069   1.342   3.376
11719SOL    HW140004   4.065   1.405   3.304
11719SOL    HW240005   4.002   1.277   3.354
11720SOL     OW40006   5.342   1.250   3.165
11720SOL    HW140007   5.383   1.224   3.247
11720SOL    HW240008   5.249   1.260   3.186
11721SOL     OW40009   4.812   1.104   2.592
11721SOL    HW140010   4.736   1.059   2.629
11721SOL    HW240011   4.866   1.033   2.556
11722SOL     OW40012   4.729   0.275   2.847
11722SOL    HW140013   4.654   0.311   2.799
11722SOL    HW240014   4.730   0.323   2.929
11723SOL     OW40015   4.319   1.480   2.328
11723SOL    HW140016   4.372   1.436   2.262
11723SOL    HW240017   4.229   1.462   2.302
11724SOL     OW40018   5.490   0.364   3.260
11724SOL    HW140019   5.569   0.414   3.242
11724SOL    HW240020   5.479   0.309   3.183
11725SOL     OW40021   3.972   1.333   2.141
11725SOL    HW140022   3.914   1.257   2.148
11725SOL    HW240023   3.957   1.382   2.222
11726SOL     OW40024   3.864   1.018   3.582
11726SOL    HW140025   3.784   1.010   3.634
11726SOL    HW240026   3.891   0.928   3.565
11727SOL     OW40027   4.358   0.143   3.395
11727SOL    HW140028   4.427   0.143   3.328
11727SOL    HW240029   4.402   0.177   3.474
11728SOL     OW40030   3.812   0.322   1.880
11728SOL    HW140031   3.730   0.322   1.830
11728SOL    HW240032   3.852   0.407   1.860
11729SOL     OW40033   5.116   0.894   3.279
11729SOL    HW140034   5.056   0.941   3.221
11729SOL    HW240035   5.196   0.884   3.226
11730SOL     OW40036   3.778   0.192   2.135
11730SOL    HW140037   3.773   0.245   2.055
11730SOL    HW240038   3.861   0.145   2.129
11731SOL     OW40039   4.998   1.290   1.982
11731SOL    HW140040   4.954   1.205   1.983
11731SOL    HW240041   5.007   1.313   2.075
11732SOL     OW40042   5.290   1.835   2.775
11732SOL    HW140043   5.210   1.786   2.754
11732SOL    HW240044   5.343   1.773   2.826
11733SOL     OW40045   4.449   0.498   3.663
11733SOL    HW140046   4.362   0.537   3.668
11733SOL    HW240047   4.496   0.552   3.599
11734SOL     OW40048   5.106   1.246   3.501
11734SOL    HW140049   5.020   1.212   3.528
11734SOL    HW240050   5.160   1.236   3.579
11735SOL     OW40051   4.063   1.752   3.475
11735SOL    HW140052   3.986   1.806   3.456
11735SOL    HW240053   4.027   1.670   3.508
11736SOL     OW40054   5.343   0.878   3.111
11736SOL    HW140055   5.345   0.789   3.074
11736SOL    HW240056   5.352   0.935   3.036
11737SOL     OW40057   4.927   0.347   2.346
11737SOL    HW140058   4.927   0.251   2.341
11737SOL    HW240059   4.846   0.368   2.392
11738SOL     OW40060   4.340   0.779   2.426
11738SOL    HW140061   4.387   0.857   2.456
11738SOL    HW240062   4.257   0.783   2.474
11739SOL     OW40063   5.484   0.909   3.346
11739SOL    HW140064   5.476   1.003   3.359
11739SOL    HW240065   5.443   0.893   3.261
11740SOL     OW40066   4.477   1.367   1.879
11740SOL    HW140067   4.481   1.370   1.975
11740SOL    HW240068   4.542   1.432   1.850
11741SOL     OW40069   4.602   1.000   2.735
11741SOL    HW140070   4.656   0.930   2.772
11741SOL    HW240071   4.570   1.049   2.811
11742SOL     OW40072   4.875   1.049   1.941
11742SOL    HW140073   4.811   1.058   1.870
11742SOL    HW240074   4.917   0.964   1.924
11743SOL     OW40075   5.582   1.579   2.673
11743SOL    HW140076   5.496   1.556   2.637
11743SOL    HW240077   5.608   1.503   2.725
11744SOL     OW40078   3.927   1.267   3.681
11744SOL    HW140079   3.907   1.182   3.642
11744SOL    HW240080   3.864   1.276   3.752
11745SOL     OW40081   3.839   1.199   2.462
11745SOL    HW140082   3.913   1.147   2.495
11745SOL    HW240083   3.823   1.164   2.374
11746SOL     OW40084   4.425   1.381   3.510
11746SOL    HW140085   4.345   1.350   3.552
11746SOL    HW240086   4.424   1.476   3.524
11747SOL     OW40087   5.446   0.140   3.082
11747SOL    HW140088   5.393   0.062   3.068
11747SOL    HW240089   5.491   0.154   2.999
11748SOL     OW40090   4.119   0.448   2.355
11748SOL    HW140091   4.129   0.452   2.260
11748SOL    HW240092   4.034   0.488   2.372
11749SOL     OW40093   5.332   1.457   2.978
11749SOL    HW140094   5.265   1.434   2.914
11749SOL    HW240095   5.334   1.384   3.039
11750SOL     OW40096   4.133   0.507   3.126
11750SOL    HW140097   4.144   0.450   3.202
11750SOL    HW240098   4.207   0.486   3.070
11751SOL     OW40099   4.550   1.545   2.489
11751SOL    HW140100   4.480   1.551   2.424
11751SOL    HW240101   4.512   1.497   2.562
11752SOL     OW40102   5.128   0.229   2.962
11752SOL    HW140103   5.146   0.146   3.006
11752SOL    HW240104   5.086   0.283   3.028
11753SOL     OW40105   4.665   0.028   2.965
11753SOL    HW140106   4.694   9.953   2.913
11753SOL    HW240107   4.699   0.104   2.918
11754SOL     OW40108   4.504   1.348   2.161
11754SOL    HW140109   4.487   1.257   2.185
11754SOL    HW240110   4.591   1.367   2.198
11755SOL     OW40111   4.338   1.567   3.141
11755SOL    HW140112   4.343   1.634   3.210
11755SOL    HW240113   4.428   1.535   3.134
11756SOL     OW40114   5.088   0.066   2.059
11756SOL    HW140115   5.141   0.023   1.991
11756SOL    HW240116   5.033   9.997   2.094
11757SOL     OW40117   5.087   0.468   2.537
11757SOL    HW140118   5.032   0.433   2.468
11757SOL    HW240119   5.039   0.451   2.618
11758SOL     OW40120   5.297   0.209   2.741
11758SOL    HW140121   5.235   0.224   2.812
11758SOL    HW240122   5.308   0.295   2.700
11759SOL     OW40123   3.837   1.091   2.215
11759SOL    HW140124   3.918   1.050   2.185
11759SOL    HW240125   3.772   1.021   2.211
11760SOL     OW40126   4.623   1.701   2.159
11760SOL    HW140127   4.547   1.686   2.102
11760SOL    HW240128   4.596   1.771   2.218
11761SOL     OW40129   3.872   0.312   4.751
11761SOL    HW140130   3.922   0.264   4.817
11761SOL    HW240131   3.790   0.263   4.743
11762SOL     OW40132   3.677   0.415   4.392
11762SOL    HW140133   3.596   0.392   4.437
11762SOL    HW240134   3.684   0.351   4.321
11763SOL     OW40135   4.345   1.271   4.949
11763SOL    HW140136   4.275   1.221   4.990
11763SOL    HW240137   4.411   1.280   5.017
11764SOL     OW40138   5.314   1.539   4.458
11764SOL    HW140139   5.263   1.485   4.518
11764SOL    HW240140   5.265   1.534   4.375
11765SOL     OW40141   4.851   0.650   4.417
11765SOL    HW140142   4.830   0.706   4.492
11765SOL    HW240143   4.779   0.586   4.414
11766SOL     OW40144   5.521   0.582   3.924
11766SOL    HW140145   5.475   0.589   3.840
11766SOL    HW240146   5.493   0.497   3.959
11767SOL     OW40147   4.524   1.173   4.755
11767SOL    HW140148   4.453   1.187   4.818
11767SOL    HW240149   4.555   1.262   4.735
11768SOL     OW40150   4.505   0.816   5.565
11768SOL    HW140151   4.572   0.768   5.614
11768SOL    HW240152   4.550   0.846   5.486
11769SOL     OW40153   4.479   1.052   4.378
11769SOL    HW140154   4.528   1.008   4.447
11769SOL    HW240155   4.389   1.055   4.411
11770SOL     OW40156   4.474   1.212   5.415
11770SOL    HW140157   4.500   1.288   5.467
11770SOL    HW240158   4.380   1.203   5.433
11771SOL     OW40159   4.007   1.494   4.847
11771SOL    HW140160   3.959   1.429   4.795
11771SOL    HW240161   4.078   1.523   4.788
11772SOL     OW40162   5.148   1.508   5.101
11772SOL    HW140163   5.207   1.584   5.100
11772SOL    HW240164   5.080   1.531   5.164
11773SOL     OW40165   4.108   0.413   5.305
11773SOL    HW140166   4.188   0.411   5.358
11773SOL    HW240167   4.138   0.405   5.215
11774SOL     OW40168   5.311   0.441   4.473
11774SOL    HW140169   5.219   0.423   4.452
11774SOL    HW240170   5.329   0.387   4.550
11775SOL     OW40171   3.936   1.729   4.189
11775SOL    HW140172   3.960   1.796   4.252
11775SOL    HW240173   4.016   1.716   4.137
11776SOL     OW40174   4.747   1.360   5.399
11776SOL    HW140175   4.809   1.413   5.449
11776SOL    HW240176   4.773   1.270   5.416
11777SOL     OW40177   3.991   1.444   4.237
11777SOL    HW140178   3.935   1.521   4.247
11777SOL    HW240179   3.948   1.376   4.288
11778SOL     OW40180   3.978   1.080   4.588
11778SOL    HW140181   3.980   0.985   4.593
11778SOL    HW240182   4.006   1.110   4.674
11779SOL     OW40183   4.307   1.032   3.879
11779SOL    HW140184   4.345   1.020   3.967
11779SOL    HW240185   4.262   0.949   3.862
11780SOL     OW40186   3.760   0.679   4.342
11780SOL    HW140187   3.732   0.588   4.356
11780SOL    HW240188   3.855   0.677   4.352
11781SOL     OW40189   5.587   1.747   4.038
11781SOL    HW140190   5.660   1.729   4.098
11781SOL    HW240191   5.600   1.837   4.010
11782SOL     OW40192   3.798   1.579   3.833
11782SOL    HW140193   3.785   1.486   3.853
11782SOL    HW240194   3.754   1.625   3.905
11783SOL     OW40195   5.436   0.901   4.466
11783SOL    HW140196   5.514   0.847   4.470
11783SOL    HW240197   5.363   0.839   4.466
11784SOL     OW40198   5.433   1.047   4.175
11784SOL    HW140199   5.482   1.089   4.106
11784SOL    HW240200   5.448   0.953   4.162
11785SOL     OW40201   3.872   0.730   5.276
11785SOL    HW140202   3.957   0.771   5.291
11785SOL    HW240203   3.812   0.804   5.266
11786SOL     OW40204   4.324   1.400   4.465
11786SOL    HW140205   4.301   1.308   4.475
11786SOL    HW240206   4.304   1.421   4.374
11787SOL     OW40207   4.948   1.243   5.115
11787SOL    HW140208   4.919   1.158   5.083
11787SOL    HW240209   5.012   1.223   5.184
11788SOL     OW40210   4.450   0.009   4.264
11788SOL    HW140211   4.504   0.068   4.317
11788SOL    HW240212   4.364   0.051   4.261
11789SOL     OW40213   3.886   0.973   4.968
11789SOL    HW140214   3.973   0.934   4.981
11789SOL    HW240215   3.836   0.905   4.923
11790SOL     OW40216   5.284   0.983   3.905
11790SOL    HW140217   5.225   0.917   3.866
11790SOL    HW240218   5.271   0.974   3.999
11791SOL     OW40219   4.994   1.849   5.387
11791SOL    HW140220   4.985   1.776   5.326
11791SOL    HW240221   4.981   1.810   5.473
11792SOL     OW40222   4.079   0.248   5.613
11792SOL    HW140223   4.114   0.329   5.649
11792SOL    HW240224   3.984   0.260   5.615
11793SOL     OW40225   5.149   1.409   4.640
11793SOL    HW140226   5.093   1.428   4.716
11793SOL    HW240227   5.142   1.314   4.629
11794SOL     OW40228   5.356   1.835   4.270
11794SOL    HW140229   5.347   1.781   4.191
11794SOL    HW240230   5.377   1.772   4.339
11795SOL     OW40231   4.956   0.381   4.704
11795SOL    HW140232   4.885   0.425   4.751
11795SOL    HW240233   4.958   0.293   4.741
11796SOL     OW40234   5.320   1.680   4.045
11796SOL    HW140235   5.415   1.685   4.037
11796SOL    HW240236   5.288   1.666   3.956
11797SOL     OW40237   4.475   0.638   5.227
11797SOL    HW140238   4.445   0.594   5.307
11797SOL    HW240239   4.458   0.575   5.157
11798SOL     OW40240   4.660   0.830   5.299
11798SOL    HW140241   4.728   0.816   5.234
11798SOL    HW240242   4.602   0.755   5.290
11799SOL     OW40243   4.672   0.404   5.018
11799SOL    HW140244   4.670   0.330   5.078
11799SOL    HW240245   4.581   0.433   5.013
11800SOL     OW40246   4.807   0.718   4.150
11800SOL    HW140247   4.828   0.703   4.242
11800SOL    HW240248   4.718   0.683   4.140
11801SOL     OW40249   3.718   0.805   4.668
11801SOL    HW140250   3.723   0.719   4.710
11801SOL    HW240251   3.809   0.826   4.646
11802SOL     OW40252   4.560   0.412   3.903
11802SOL    HW140253   4.522   0.453   3.825
11802SOL    HW240254   4.638   0.366   3.871
11803SOL     OW40255   5.436   0.658   5.496
11803SOL    HW140256   5.349   0.680   5.462
11803SOL    HW240257   5.465   0.586   5.441
11804SOL     OW40258   5.236   1.182   4.340
11804SOL    HW140259   5.239   1.121   4.266
11804SOL    HW240260   5.157   1.235   4.324
11805SOL     OW40261   4.222   0.214   4.623
11805SOL    HW140262   4.265   0.154   4.684
11805SOL    HW240263   4.291   0.274   4.595
11806SOL     OW40264   4.641   1.425   4.190
11806SOL    HW140265   4.717   1.481   4.177
11806SOL    HW240266   4.661   1.375   4.269
11807SOL     OW40267   4.069   1.823   4.627
11807SOL    HW140268   4.098   1.732   4.631
11807SOL    HW240269   4.144   1.874   4.659
11808SOL     OW40270   5.490   1.120   4.635
11808SOL    HW140271   5.498   1.027   4.614
11808SOL    HW240272   5.431   1.123   4.710
11809SOL     OW40273   4.937   1.603   5.253
11809SOL    HW140274   4.921   1.584   5.346
11809SOL    HW240275   4.869   1.554   5.207
11810SOL     OW40276   5.234   0.711   4.472
11810SOL    HW140277   5.183   0.696   4.551
11810SOL    HW240278   5.277   0.628   4.455
11811SOL     OW40279   4.169   1.248   5.437
11811SOL    HW140280   4.164   1.155   5.457
11811SOL    HW240281   4.094   1.287   5.482
11812SOL     OW40282   4.846   1.807   3.961
11812SOL    HW140283   4.756   1.786   3.985
11812SOL    HW240284   4.862   1.757   3.881
11813SOL     OW40285   3.886   0.212   5.235
11813SOL    HW140286   3.801   0.236   5.272
11813SOL    HW240287   3.949   0.267   5.281
11814SOL     OW40288   5.346   1.401   3.828
11814SOL    HW140289   5.302   1.483   3.807
11814SOL    HW240290   5.281   1.333   3.811
11815SOL     OW40291   4.206   1.700   4.084
11815SOL    HW140292   4.224   1.621   4.135
11815SOL    HW240293   4.247   1.683   3.999
11816SOL     OW40294   4.646   1.719   4.581
11816SOL    HW140295   4.683   1.657   4.644
11816SOL    HW240296   4.609   1.664   4.511
11817SOL     OW40297   4.032   0.662   4.347
11817SOL    HW140298   4.068   0.577   4.322
11817SOL    HW240299   4.036   0.714   4.267
11818SOL     OW40300   5.271   0.278   5.440
11818SOL    HW140301   5.281   0.262   5.534
11818SOL    HW240302   5.177   0.289   5.427
11819SOL     OW40303   4.300   0.064   3.826
11819SOL    HW140304   4.358   0.008   3.878
11819SOL    HW240305   4.359   0.111   3.768
11820SOL     OW40306   4.664   1.591   4.865
11820SOL    HW140307   4.618   1.531   4.806
11820SOL    HW240308   4.710   1.533   4.926
11821SOL     OW40309   4.559   1.434   4.643
11821SOL    HW140310   4.626   1.407   4.580
11821SOL    HW240311   4.476   1.413   4.601
11822SOL     OW40312   4.645   0.538   4.674
11822SOL    HW140313   4.654   0.532   4.579
11822SOL    HW240314   4.598   0.459   4.698
11823SOL     OW40315   4.193   0.125   4.227
11823SOL    HW140316   4.127   0.090   4.286
11823SOL    HW240317   4.156   0.112   4.139
11824SOL     OW40318   5.163   1.203   3.782
11824SOL    HW140319   5.204   1.125   3.819
11824SOL    HW240320   5.069   1.186   3.788
11825SOL     OW40321   4.066   0.054   3.985
11825SOL    HW140322   4.137   0.045   3.921
11825SOL    HW240323   4.045   9.965   4.011
11826SOL     OW40324   4.689   0.253   4.110
11826SOL    HW140325   4.642   0.324   4.065
11826SOL    HW240326   4.764   0.297   4.150
11827SOL     OW40327   4.944   1.581   4.535
11827SOL    HW140328   4.973   1.638   4.464
11827SOL    HW240329   5.019   1.524   4.553
11828SOL     OW40330   4.202   1.146   4.421
11828SOL    HW140331   4.136   1.117   4.484
11828SOL    HW240332   4.175   1.106   4.339
11829SOL     OW40333   4.989   1.793   4.350
11829SOL    HW140334   5.029   1.860   4.295
11829SOL    HW240335   4.914   1.836   4.390
11830SOL     OW40336   4.765   0.542   3.668
11830SOL    HW140337   4.707   0.582   3.603
11830SOL    HW240338   4.796   0.615   3.721
11831SOL     OW40339   3.848   0.553   5.063
11831SOL    HW140340   3.942   0.547   5.043
11831SOL    HW240341   3.844   0.607   5.142
11832SOL     OW40342   4.246   0.277   4.942
11832SOL    HW140343   4.287   0.206   4.891
11832SOL    HW240344   4.155   0.251   4.950
11833SOL     OW40345   4.646   0.469   4.401
11833SOL    HW140346   4.604   0.482   4.316
11833SOL    HW240347   4.623   0.380   4.426
11834SOL     OW40348   4.743   0.013   4.415
11834SOL    HW140349   4.694   0.090   4.441
11834SOL    HW240350   4.725   9.948   4.483
11835SOL     OW40351   5.151   1.133   4.611
11835SOL    HW140352   5.086   1.067   4.632
11835SOL    HW240353   5.164   1.125   4.516
11836SOL     OW40354   5.117   0.626   4.708
11836SOL    HW140355   5.066   0.546   4.714
11836SOL    HW240356   5.191   0.612   4.767
11837SOL     OW40357   5.524   0.801   4.088
11837SOL    HW140358   5.582   0.758   4.151
11837SOL    HW240359   5.513   0.736   4.018
11838SOL     OW40360   4.298   1.362   3.861
11838SOL    HW140361   4.214   1.355   3.907
11838SOL    HW240362   4.281   1.320   3.776
11839SOL     OW40363   5.088   0.526   3.786
11839SOL    HW140364   5.020   0.525   3.853
11839SOL    HW240365   5.147   0.454   3.810
11840SOL     OW40366   4.287   0.325   3.941
11840SOL    HW140367   4.284   0.232   3.919
11840SOL    HW240368   4.381   0.344   3.950
11841SOL     OW40369   5.421   1.248   5.263
11841SOL    HW140370   5.474   1.174   5.293
11841SOL    HW240371   5.474   1.325   5.283
11842SOL     OW40372   4.754   1.439   5.086
11842SOL    HW140373   4.677   1.390   5.115
11842SOL    HW240374   4.826   1.375   5.092
11843SOL     OW40375   5.449   1.743   5.331
11843SOL    HW140376   5.409   1.704   5.253
11843SOL    HW240377   5.466   1.668   5.389
11844SOL     OW40378   4.888   1.226   4.792
11844SOL    HW140379   4.872   1.155   4.854
11844SOL    HW240380   4.871   1.188   4.706
11845SOL     OW40381   5.308   1.085   4.840
11845SOL    HW140382   5.299   1.161   4.898
11845SOL    HW240383   5.237   1.095   4.777
11846SOL     OW40384   4.718   1.069   5.440
11846SOL    HW140385   4.632   1.111   5.431
11846SOL    HW240386   4.709   0.987   5.391
11847SOL     OW40387   4.497   1.082   4.102
11847SOL    HW140388   4.479   1.062   4.193
11847SOL    HW240389   4.574   1.030   4.080
11848SOL     OW40390   4.125   0.845   5.010
11848SOL    HW140391   4.203   0.858   5.064
11848SOL    HW240392   4.115   0.750   5.005
11849SOL     OW40393   4.883   0.572   4.962
11849SOL    HW140394   4.852   0.647   5.013
11849SOL    HW240395   4.818   0.504   4.979
11850SOL     OW40396   4.047   1.067   4.176
11850SOL    HW140397   4.116   1.092   4.115
11850SOL    HW240398   4.044   0.972   4.171
11851SOL     OW40399   4.321   0.517   4.574
11851SOL    HW140400   4.343   0.558   4.490
11851SOL    HW240401   4.386   0.447   4.584
11852SOL     OW40402   5.023   1.331   4.252
11852SOL    HW140403   5.059   1.418   4.236
11852SOL    HW240404   4.985   1.304   4.168
11853SOL     OW40405   5.003   1.469   4.866
11853SOL    HW140406   5.042   1.461   4.953
11853SOL    HW240407   4.951   1.389   4.856
11854SOL     OW40408   5.302   0.538   4.157
11854SOL    HW140409   5.236   0.552   4.224
11854SOL    HW240410   5.320   0.626   4.122
11855SOL     OW40411   4.168   0.775   5.341
11855SOL    HW140412   4.232   0.806   5.278
11855SOL    HW240413   4.207   0.695   5.377
11856SOL     OW40414   4.285   0.059   5.538
11856SOL    HW140415   4.228   9.986   5.516
11856SOL    HW240416   4.225   0.131   5.558
11857SOL     OW40417   4.242   0.887   4.762
11857SOL    HW140418   4.317   0.827   4.758
11857SOL    HW240419   4.211   0.882   4.852
11858SOL     OW40420   5.064   0.887   4.791
11858SOL    HW140421   4.970   0.886   4.808
11858SOL    HW240422   5.083   0.799   4.758
11859SOL     OW40423   4.905   0.511   3.988
11859SOL    HW140424   4.926   0.449   4.058
11859SOL    HW240425   4.869   0.587   4.033
11860SOL     OW40426   3.991   0.177   4.980
11860SOL    HW140427   3.945   0.196   5.062
11860SOL    HW240428   4.027   0.089   4.993
11861SOL     OW40429   3.786   1.377   5.006
11861SOL    HW140430   3.800   1.308   5.071
11861SOL    HW240431   3.870   1.422   5.000
11862SOL     OW40432   4.416   0.660   4.784
11862SOL    HW140433   4.508   0.650   4.761
11862SOL    HW240434   4.368   0.617   4.713
11863SOL     OW40435   5.481   0.926   5.574
11863SOL    HW140436   5.466   0.836   5.547
11863SOL    HW240437   5.416   0.942   5.643
11864SOL     OW40438   3.961   0.066   4.377
11864SOL    HW140439   3.950   0.160   4.394
11864SOL    HW240440   3.982   0.029   4.463
11865SOL     OW40441   5.420   0.304   4.057
11865SOL    HW140442   5.393   0.223   4.100
11865SOL    HW240443   5.385   0.373   4.113
11866SOL     OW40444   4.759   0.789   4.782
11866SOL    HW140445   4.767   0.794   4.877
11866SOL    HW240446   4.745   0.696   4.764
11867SOL     OW40447   4.639   1.614   5.381
11867SOL    HW140448   4.640   1.519   5.374
11867SOL    HW240449   4.712   1.634   5.439
11868SOL     OW40450   5.581   1.481   5.292
11868SOL    HW140451   5.608   1.534   5.218
11868SOL    HW240452   5.652   1.491   5.356
11869SOL     OW40453   4.129   0.985   5.513
11869SOL    HW140454   4.179   0.964   5.592
11869SOL    HW240455   4.141   0.909   5.456
11870SOL     OW40456   5.228   0.292   3.856
11870SOL    HW140457   5.184   0.215   3.890
11870SOL    HW240458   5.299   0.308   3.918
11871SOL     OW40459   5.085   0.809   3.823
11871SOL    HW140460   5.096   0.717   3.801
11871SOL    HW240461   5.059   0.851   3.741
11872SOL     OW40462   4.753   1.375   4.454
11872SOL    HW140463   4.790   1.288   4.466
11872SOL    HW240464   4.824   1.435   4.479
11873SOL     OW40465   4.000   0.813   4.657
11873SOL    HW140466   4.087   0.841   4.686
11873SOL    HW240467   4.007   0.718   4.647
11874SOL     OW40468   4.077   0.535   4.702
11874SOL    HW140469   4.032   0.451   4.691
11874SOL    HW240470   4.157   0.527   4.651
11875SOL     OW40471   5.014   0.283   5.335
11875SOL    HW140472   4.935   0.230   5.337
11875SOL    HW240473   4.982   0.374   5.338
11876SOL     OW40474   3.767   1.310   3.900
11876SOL    HW140475   3.676   1.326   3.872
11876SOL    HW240476   3.763   1.227   3.948
11877SOL     OW40477   3.795   1.762   4.658
11877SOL    HW140478   3.777   1.674   4.624
11877SOL    HW240479   3.890   1.772   4.652
11878SOL     OW40480   4.194   1.577   4.648
11878SOL    HW140481   4.267   1.637   4.658
11878SOL    HW240482   4.227   1.507   4.591
11879SOL     OW40483   3.762   0.567   4.802
11879SOL    HW140484   3.800   0.488   4.764
11879SOL    HW240485   3.796   0.569   4.892
11880SOL     OW40486   3.917   0.532   5.471
11880SOL    HW140487   3.986   0.488   5.421
11880SOL    HW240488   3.881   0.596   5.409
11881SOL     OW40489   4.567   0.579   4.131
11881SOL    HW140490   4.555   0.530   4.050
11881SOL    HW240491   4.483   0.623   4.146
11882SOL     OW40492   5.337   0.623   4.884
11882SOL    HW140493   5.320   0.568   4.960
11882SOL    HW240494   5.413   0.582   4.841
11883SOL     OW40495   4.397   0.491   5.006
11883SOL    HW140496   4.356   0.410   4.977
11883SOL    HW240497   4.404   0.544   4.926
11884SOL     OW40498   4.609   1.723   5.132
11884SOL    HW140499   4.624   1.655   5.066
11884SOL    HW240500   4.623   1.678   5.215
11885SOL     OW40501   3.861   1.163   5.167
11885SOL    HW140502   3.857   1.118   5.252
11885SOL    HW240503   3.866   1.091   5.103
11886SOL     OW40504   5.037   0.865   4.099
11886SOL    HW140505   4.959   0.812   4.116
11886SOL    HW240506   5.052   0.855   4.005
11887SOL     OW40507   5.485   1.709   4.864
11887SOL    HW140508   5.553   1.727   4.798
11887SOL    HW240509   5.454   1.621   4.842
11888SOL     OW40510   4.978   1.750   4.813
11888SOL    HW140511   4.967   1.721   4.722
11888SOL    HW240512   4.988   1.669   4.863
11889SOL     OW40513   3.812   1.303   4.743
11889SOL    HW140514   3.791   1.310   4.836
11889SOL    HW240515   3.795   1.212   4.722
11890SOL     OW40516   4.398   1.770   5.411
11890SOL    HW140517   4.374   1.725   5.492
11890SOL    HW240518   4.479   1.726   5.382
11891SOL     OW40519   5.142   1.579   4.237
11891SOL    HW140520   5.195   1.608   4.162
11891SOL    HW240521   5.087   1.655   4.258
11892SOL     OW40522   3.781   1.858   5.684
11892SOL    HW140523   3.753   1.777   5.641
11892SOL    HW240524   3.876   1.857   5.677
11893SOL     OW40525   5.045   0.939   4.379
11893SOL    HW140526   5.092   0.861   4.410
11893SOL    HW240527   5.036   0.925   4.285
11894SOL     OW40528   4.536   1.270   5.148
11894SOL    HW140529   4.521   1.262   5.243
11894SOL    HW240530   4.567   1.184   5.122
11895SOL     OW40531   4.374   1.628   3.875
11895SOL    HW140532   4.465   1.615   3.846
11895SOL    HW240533   4.331   1.545   3.856
11896SOL     OW40534   5.317   1.728   5.084
11896SOL    HW140535   5.371   1.720   5.006
11896SOL    HW240536   5.306   1.822   5.097
11897SOL     OW40537   3.928   0.323   4.473
11897SOL    HW140538   3.846   0.367   4.452
11897SOL    HW240539   3.923   0.307   4.568
11898SOL     OW40540   4.971   1.696   3.733
11898SOL    HW140541   4.912   1.620   3.730
11898SOL    HW240542   4.956   1.741   3.650
11899SOL     OW40543   4.609   1.013   5.097
11899SOL    HW140544   4.687   1.000   5.043
11899SOL    HW240545   4.621   0.955   5.172
11900SOL     OW40546   4.744   1.014   3.995
11900SOL    HW140547   4.807   1.051   3.933
11900SOL    HW240548   4.781   0.929   4.019
11901SOL     OW40549   5.236   1.666   3.780
11901SOL    HW140550   5.143   1.660   3.758
11901SOL    HW240551   5.280   1.676   3.696
11902SOL     OW40552   4.072   1.338   5.188
11902SOL    HW140553   4.115   1.306   5.267
11902SOL    HW240554   3.999   1.278   5.174
11903SOL     OW40555   5.300   1.295   5.017
11903SOL    HW140556   5.352   1.271   5.094
11903SOL    HW240557   5.236   1.358   5.050
11904SOL     OW40558   4.855   1.117   4.521
11904SOL    HW140559   4.778   1.064   4.538
11904SOL    HW240560   4.910   1.063   4.464
11905SOL     OW40561   4.261   1.454   4.201
11905SOL    HW140562   4.285   1.387   4.137
11905SOL    HW240563   4.167   1.441   4.214
11906SOL     OW40564   5.454   0.343   5.092
11906SOL    HW140565   5.526   0.399   5.063
11906SOL    HW240566   5.468   0.260   5.045
11907SOL     OW40567   4.049   1.360   3.981
11907SOL    HW140568   3.969   1.335   3.936
11907SOL    HW240569   4.021   1.388   4.068
11908SOL     OW40570   3.870   1.057   5.430
11908SOL    HW140571   3.799   1.015   5.479
11908SOL    HW240572   3.950   1.019   5.467
11909SOL     OW40573   3.834   0.357   3.722
11909SOL    HW140574   3.750   0.337   3.680
11909SOL    HW240575   3.873   0.426   3.667
11910SOL     OW40576   3.889   0.272   3.986
11910SOL    HW140577   3.857   0.281   3.896
11910SOL    HW240578   3.945   0.195   3.984
11911SOL     OW40579   4.360   0.870   5.148
11911SOL    HW140580   4.426   0.931   5.116
11911SOL    HW240581   4.408   0.790   5.166
11912SOL     OW40582   5.314   1.830   4.667
11912SOL    HW140583   5.294   1.758   4.608
11912SOL    HW240584   5.359   1.789   4.741
11913SOL     OW40585   4.368   0.584   5.474
11913SOL    HW140586   4.395   0.667   5.514
11913SOL    HW240587   4.421   0.518   5.518
11914SOL     OW40588   5.156   1.155   5.292
11914SOL    HW140589   5.141   1.145   5.386
11914SOL    HW240590   5.243   1.193   5.285
11915SOL     OW40591   5.449   0.873   4.952
11915SOL    HW140592   5.413   0.790   4.920
11915SOL    HW240593   5.405   0.940   4.898
11916SOL     OW40594   4.950   0.333   4.191
11916SOL    HW140595   4.993   0.248   4.179
11916SOL    HW240596   4.976   0.362   4.278
11917SOL     OW40597   4.312   0.724   4.365
11917SOL    HW140598   4.311   0.781   4.288
11917SOL    HW240599   4.220   0.713   4.388
11918SOL     OW40600   5.501   0.401   5.355
11918SOL    HW140601   5.481   0.399   5.262
11918SOL    HW240602   5.424   0.362   5.397
11919SOL     OW40603   5.511   0.905   5.218
11919SOL    HW140604   5.435   0.860   5.254
11919SOL    HW240605   5.500   0.899   5.123
11920SOL     OW40606   4.378   1.784   4.642
11920SOL    HW140607   4.375   1.879   4.637
11920SOL    HW240608   4.471   1.763   4.635
11921SOL     OW40609   4.639   0.971   4.607
11921SOL    HW140610   4.672   0.904   4.666
11921SOL    HW240611   4.591   1.032   4.663
11922SOL     OW40612   5.585   1.550   4.537
11922SOL    HW140613   5.496   1.534   4.508
11922SOL    HW240614   5.607   1.475   4.592
11923SOL     OW40615   3.917   1.309   5.533
11923SOL    HW140616   3.893   1.225   5.493
11923SOL    HW240617   3.868   1.310   5.615
11924SOL     OW40618   3.891   1.217   4.359
11924SOL    HW140619   3.914   1.172   4.441
11924SOL    HW240620   3.931   1.163   4.291
11925SOL     OW40621   4.299   1.486   5.372
11925SOL    HW140622   4.253   1.405   5.395
11925SOL    HW240623   4.374   1.489   5.431
11926SOL     OW40624   4.122   0.403   4.291
11926SOL    HW140625   4.172   0.326   4.265
11926SOL    HW240626   4.065   0.372   4.362
11927SOL     OW40627   5.367   1.474   4.811
11927SOL    HW140628   5.298   1.448   4.750
11927SOL    HW240629   5.361   1.410   4.882
11928SOL     OW40630   4.112   0.571   4.974
11928SOL    HW140631   4.196   0.528   4.990
11928SOL    HW240632   4.096   0.559   4.881
11929SOL     OW40633   4.505   1.605   4.369
11929SOL    HW140634   4.537   1.551   4.296
11929SOL    HW240635   4.439   1.550   4.412
11930SOL     OW40636   5.139   0.061   3.973
11930SOL    HW140637   5.205   0.058   4.043
11930SOL    HW240638   5.084   9.985   3.989
11931SOL     OW40639   5.031   0.435   4.438
11931SOL    HW140640   4.980   0.516   4.431
11931SOL    HW240641   5.007   0.399   4.524
11932SOL     OW40642   5.355   0.262   4.683
11932SOL    HW140643   5.325   0.199   4.748
11932SOL    HW240644   5.441   0.230   4.655
11933SOL     OW40645   3.785   1.077   4.049
11933SOL    HW140646   3.876   1.067   4.079
11933SOL    HW240647   3.754   0.987   4.036
11934SOL     OW40648   4.587   1.718   4.047
11934SOL    HW140649   4.622   1.656   3.983
11934SOL    HW240650   4.492   1.709   4.039
11935SOL     OW40651   3.899   0.663   5.724
11935SOL    HW140652   3.810   0.639   5.751
11935SOL    HW240653   3.908   0.626   5.636
11936SOL     OW40654   3.910   0.333   6.652
11936SOL    HW140655   3.944   0.301   6.735
11936SOL    HW240656   3.913   0.257   6.594
11937SOL     OW40657   3.754   0.416   6.218
11937SOL    HW140658   3.673   0.435   6.265
11937SOL    HW240659   3.725   0.393   6.130
11938SOL     OW40660   4.226   1.320   6.877
11938SOL    HW140661   4.266   1.239   6.844
11938SOL    HW240662   4.291   1.388   6.858
11939SOL     OW40663   4.863   0.690   6.254
11939SOL    HW140664   4.893   0.781   6.251
11939SOL    HW240665   4.805   0.687   6.329
11940SOL     OW40666   5.501   0.613   5.772
11940SOL    HW140667   5.460   0.628   5.687
11940SOL    HW240668   5.448   0.544   5.812
11941SOL     OW40669   4.426   1.147   6.768
11941SOL    HW140670   4.480   1.123   6.843
11941SOL    HW240671   4.466   1.228   6.735
11942SOL     OW40672   4.596   0.848   7.453
11942SOL    HW140673   4.603   0.897   7.535
11942SOL    HW240674   4.646   0.768   7.469
11943SOL     OW40675   4.410   0.976   6.230
11943SOL    HW140676   4.473   0.983   6.302
11943SOL    HW240677   4.345   1.044   6.249
11944SOL     OW40678   4.400   1.157   7.429
11944SOL    HW140679   4.453   1.126   7.355
11944SOL    HW240680   4.316   1.181   7.390
11945SOL     OW40681   4.001   1.503   6.620
11945SOL    HW140682   3.940   1.434   6.595
11945SOL    HW240683   4.075   1.492   6.561
11946SOL     OW40684   5.171   1.530   7.036
11946SOL    HW140685   5.103   1.564   6.978
11946SOL    HW240686   5.161   1.434   7.031
11947SOL     OW40687   4.160   0.501   7.157
11947SOL    HW140688   4.251   0.474   7.146
11947SOL    HW240689   4.109   0.424   7.131
11948SOL     OW40690   5.348   0.436   6.368
11948SOL    HW140691   5.262   0.473   6.347
11948SOL    HW240692   5.381   0.491   6.438
11949SOL     OW40693   3.925   1.755   6.026
11949SOL    HW140694   3.970   1.808   6.092
11949SOL    HW240695   3.936   1.665   6.055
11950SOL     OW40696   4.924   1.338   7.305
11950SOL    HW140697   5.007   1.299   7.278
11950SOL    HW240698   4.860   1.267   7.299
11951SOL     OW40699   3.956   1.496   6.132
11951SOL    HW140700   4.041   1.492   6.176
11951SOL    HW240701   3.904   1.427   6.172
11952SOL     OW40702   3.997   1.114   6.448
11952SOL    HW140703   4.007   1.027   6.486
11952SOL    HW240704   3.947   1.164   6.512
11953SOL     OW40705   4.382   1.770   7.078
11953SOL    HW140706   4.287   1.764   7.077
11953SOL    HW240707   4.402   1.852   7.033
11954SOL     OW40708   4.302   0.918   5.730
11954SOL    HW140709   4.373   0.890   5.673
11954SOL    HW240710   4.345   0.970   5.798
11955SOL     OW40711   5.262   0.155   7.026
11955SOL    HW140712   5.331   0.214   6.997
11955SOL    HW240713   5.239   0.186   7.114
11956SOL     OW40714   3.866   0.664   6.143
11956SOL    HW140715   3.832   0.576   6.161
11956SOL    HW240716   3.856   0.710   6.227
11957SOL     OW40717   5.551   1.753   5.926
11957SOL    HW140718   5.631   1.759   5.979
11957SOL    HW240719   5.480   1.776   5.986
11958SOL     OW40720   3.691   1.599   5.644
11958SOL    HW140721   3.715   1.509   5.623
11958SOL    HW240722   3.663   1.596   5.735
11959SOL     OW40723   5.437   0.938   6.232
11959SOL    HW140724   5.512   0.882   6.212
11959SOL    HW240725   5.420   0.985   6.150
11960SOL     OW40726   5.394   1.129   6.022
11960SOL    HW140727   5.478   1.122   5.977
11960SOL    HW240728   5.407   1.199   6.087
11961SOL     OW40729   3.844   0.749   7.130
11961SOL    HW140730   3.904   0.801   7.077
11961SOL    HW240731   3.759   0.791   7.120
11962SOL     OW40732   4.203   1.453   6.249
11962SOL    HW140733   4.213   1.359   6.264
11962SOL    HW240734   4.275   1.476   6.191
11963SOL     OW40735   5.128   1.254   6.984
11963SOL    HW140736   5.079   1.184   6.940
11963SOL    HW240737   5.135   1.223   7.075
11964SOL     OW40738   4.533   0.057   6.149
11964SOL    HW140739   4.563   0.145   6.127
11964SOL    HW240740   4.445   0.052   6.111
11965SOL     OW40741   3.904   0.954   6.885
11965SOL    HW140742   3.991   0.914   6.888
11965SOL    HW240743   3.876   0.944   6.795
11966SOL     OW40744   5.283   0.996   5.790
11966SOL    HW140745   5.224   0.932   5.830
11966SOL    HW240746   5.321   1.043   5.864
11967SOL     OW40747   4.802   1.811   7.168
11967SOL    HW140748   4.827   1.806   7.076
11967SOL    HW240749   4.810   1.721   7.200
11968SOL     OW40750   4.060   0.271   7.389
11968SOL    HW140751   4.119   0.325   7.442
11968SOL    HW240752   3.974   0.286   7.428
11969SOL     OW40753   5.142   1.566   6.653
11969SOL    HW140754   5.090   1.583   6.731
11969SOL    HW240755   5.093   1.499   6.605
11970SOL     OW40756   4.315   0.664   5.859
11970SOL    HW140757   4.315   0.750   5.817
11970SOL    HW240758   4.257   0.674   5.934
11971SOL     OW40759   5.013   0.308   6.532
11971SOL    HW140760   4.924   0.277   6.519
11971SOL    HW240761   5.014   0.341   6.622
11972SOL     OW40762   5.068   0.464   7.270
11972SOL    HW140763   5.091   0.515   7.348
11972SOL    HW240764   5.126   0.388   7.274
11973SOL     OW40765   4.732   0.491   6.787
11973SOL    HW140766   4.722   0.581   6.819
11973SOL    HW240767   4.646   0.470   6.750
11974SOL     OW40768   4.774   0.671   5.978
11974SOL    HW140769   4.789   0.663   6.072
11974SOL    HW240770   4.696   0.618   5.962
11975SOL     OW40771   3.832   0.811   6.372
11975SOL    HW140772   3.893   0.836   6.441
11975SOL    HW240773   3.766   0.881   6.372
11976SOL     OW40774   3.857   1.881   7.182
11976SOL    HW140775   3.860   1.853   7.273
11976SOL    HW240776   3.764   1.876   7.159
11977SOL     OW40777   5.430   0.534   7.394
11977SOL    HW140778   5.394   0.615   7.356
11977SOL    HW240779   5.439   0.474   7.320
11978SOL     OW40780   5.110   1.200   6.185
11978SOL    HW140781   5.175   1.182   6.117
11978SOL    HW240782   5.077   1.287   6.164
11979SOL     OW40783   4.218   0.232   6.529
11979SOL    HW140784   4.254   0.240   6.618
11979SOL    HW240785   4.236   0.316   6.488
11980SOL     OW40786   4.089   1.787   6.464
11980SOL    HW140787   4.151   1.715   6.463
11980SOL    HW240788   4.078   1.808   6.557
11981SOL     OW40789   5.546   1.034   6.470
11981SOL    HW140790   5.494   1.006   6.395
11981SOL    HW240791   5.484   1.039   6.543
11982SOL     OW40792   4.011   0.922   5.825
11982SOL    HW140793   4.103   0.912   5.799
11982SOL    HW240794   3.972   0.837   5.805
11983SOL     OW40795   5.207   0.799   6.288
11983SOL    HW140796   5.211   0.765   6.378
11983SOL    HW240797   5.290   0.845   6.276
11984SOL     OW40798   4.147   1.213   7.340
11984SOL    HW140799   4.122   1.246   7.254
11984SOL    HW240800   4.124   1.120   7.337
11985SOL     OW40801   3.989   0.282   7.119
11985SOL    HW140802   3.913   0.340   7.114
11985SOL    HW240803   4.000   0.264   7.212
11986SOL     OW40804   5.329   1.343   5.674
11986SOL    HW140805   5.265   1.415   5.679
11986SOL    HW240806   5.278   1.268   5.642
11987SOL     OW40807   4.277   1.827   5.915
11987SOL    HW140808   4.289   1.758   5.979
11987SOL    HW240809   4.310   1.790   5.833
11988SOL     OW40810   4.001   1.806   6.732
11988SOL    HW140811   4.028   1.730   6.784
11988SOL    HW240812   3.922   1.777   6.685
11989SOL     OW40813   4.647   1.746   6.540
11989SOL    HW140814   4.608   1.666   6.574
11989SOL    HW240815   4.690   1.720   6.459
11990SOL     OW40816   4.132   0.670   6.063
11990SOL    HW140817   4.144   0.577   6.080
11990SOL    HW240818   4.039   0.686   6.079
11991SOL     OW40819   5.230   0.243   7.284
11991SOL    HW140820   5.319   0.279   7.280
11991SOL    HW240821   5.237   0.169   7.344
11992SOL     OW40822   4.516   0.267   7.296
11992SOL    HW140823   4.599   0.221   7.295
11992SOL    HW240824   4.505   0.294   7.387
11993SOL     OW40825   5.037   0.567   7.009
11993SOL    HW140826   5.069   0.543   7.095
11993SOL    HW240827   5.074   0.654   6.992
11994SOL     OW40828   4.511   1.479   6.381
11994SOL    HW140829   4.528   1.472   6.475
11994SOL    HW240830   4.583   1.431   6.340
11995SOL     OW40831   4.709   0.517   6.474
11995SOL    HW140832   4.663   0.508   6.391
11995SOL    HW240833   4.736   0.428   6.497
11996SOL     OW40834   4.283   0.039   6.040
11996SOL    HW140835   4.210   0.034   6.101
11996SOL    HW240836   4.269   0.121   5.992
11997SOL     OW40837   5.140   1.142   5.595
11997SOL    HW140838   5.193   1.080   5.647
11997SOL    HW240839   5.050   1.123   5.621
11998SOL     OW40840   4.043   0.050   5.805
11998SOL    HW140841   4.069   0.118   5.743
11998SOL    HW240842   4.123   0.030   5.853
11999SOL     OW40843   4.649   0.291   6.067
11999SOL    HW140844   4.632   0.351   5.995
11999SOL    HW240845   4.740   0.265   6.056
12000SOL     OW40846   4.772   0.624   7.085
12000SOL    HW140847   4.733   0.664   7.008
12000SOL    HW240848   4.864   0.612   7.061
12001SOL     OW40849   4.197   1.169   6.261
12001SOL    HW140850   4.135   1.147   6.331
12001SOL    HW240851   4.150   1.148   6.181
12002SOL     OW40852   4.711   0.656   5.651
12002SOL    HW140853   4.660   0.577   5.633
12002SOL    HW240854   4.796   0.623   5.683
12003SOL     OW40855   3.833   0.490   7.025
12003SOL    HW140856   3.903   0.509   6.962
12003SOL    HW240857   3.819   0.573   7.071
12004SOL     OW40858   4.282   0.223   6.803
12004SOL    HW140859   4.318   0.211   6.891
12004SOL    HW240860   4.188   0.206   6.813
12005SOL     OW40861   4.557   0.489   6.254
12005SOL    HW140862   4.485   0.544   6.226
12005SOL    HW240863   4.570   0.427   6.182
12006SOL     OW40864   5.171   1.122   6.465
12006SOL    HW140865   5.110   1.056   6.498
12006SOL    HW240866   5.134   1.148   6.381
12007SOL     OW40867   5.197   0.694   6.560
12007SOL    HW140868   5.153   0.625   6.511
12007SOL    HW240869   5.239   0.648   6.634
12008SOL     OW40870   5.569   0.817   5.952
12008SOL    HW140871   5.619   0.761   6.011
12008SOL    HW240872   5.531   0.757   5.888
12009SOL     OW40873   4.219   1.472   5.783
12009SOL    HW140874   4.134   1.432   5.803
12009SOL    HW240875   4.280   1.398   5.781
12010SOL     OW40876   5.407   1.294   6.259
12010SOL    HW140877   5.497   1.261   6.258
12010SOL    HW240878   5.359   1.232   6.314
12011SOL     OW40879   5.195   0.593   5.686
12011SOL    HW140880   5.107   0.561   5.708
12011SOL    HW240881   5.190   0.615   5.593
12012SOL     OW40882   4.268   0.270   5.887
12012SOL    HW140883   4.352   0.276   5.841
12012SOL    HW240884   4.212   0.335   5.844
12013SOL     OW40885   5.538   1.308   7.078
12013SOL    HW140886   5.611   1.247   7.088
12013SOL    HW240887   5.468   1.270   7.132
12014SOL     OW40888   5.307   1.664   7.237
12014SOL    HW140889   5.253   1.609   7.179
12014SOL    HW240890   5.392   1.621   7.238
12015SOL     OW40891   5.362   1.079   6.668
12015SOL    HW140892   5.361   1.151   6.731
12015SOL    HW240893   5.289   1.098   6.608
12016SOL     OW40894   4.596   0.132   6.944
12016SOL    HW140895   4.622   0.119   6.853
12016SOL    HW240896   4.674   0.167   6.987
12017SOL     OW40897   4.767   1.118   7.277
12017SOL    HW140898   4.676   1.111   7.248
12017SOL    HW240899   4.818   1.078   7.207
12018SOL     OW40900   4.449   1.041   5.940
12018SOL    HW140901   4.435   1.017   6.032
12018SOL    HW240902   4.534   1.003   5.919
12019SOL     OW40903   4.136   0.815   6.899
12019SOL    HW140904   4.193   0.843   6.827
12019SOL    HW240905   4.109   0.726   6.875
12020SOL     OW40906   4.985   0.384   6.803
12020SOL    HW140907   5.025   0.445   6.866
12020SOL    HW240908   4.896   0.418   6.791
12021SOL     OW40909   3.766   1.592   6.911
12021SOL    HW140910   3.721   1.535   6.849
12021SOL    HW240911   3.858   1.572   6.900
12022SOL     OW40912   4.037   1.127   6.035
12022SOL    HW140913   4.034   1.197   5.970
12022SOL    HW240914   4.029   1.046   5.985
12023SOL     OW40915   4.273   0.502   6.453
12023SOL    HW140916   4.292   0.546   6.370
12023SOL    HW240917   4.348   0.522   6.509
12024SOL     OW40918   5.243   0.618   6.047
12024SOL    HW140919   5.226   0.664   6.129
12024SOL    HW240920   5.205   0.675   5.979
12025SOL     OW40921   4.053   1.566   6.879
12025SOL    HW140922   4.038   1.539   6.788
12025SOL    HW240923   4.113   1.500   6.913
12026SOL     OW40924   4.203   0.774   7.164
12026SOL    HW140925   4.180   0.798   7.074
12026SOL    HW240926   4.186   0.680   7.169
12027SOL     OW40927   5.340   0.761   7.276
12027SOL    HW140928   5.331   0.819   7.352
12027SOL    HW240929   5.379   0.816   7.208
12028SOL     OW40930   4.732   0.096   7.393
12028SOL    HW140931   4.807   0.144   7.427
12028SOL    HW240932   4.762   0.061   7.309
12029SOL     OW40933   4.123   0.026   7.275
12029SOL    HW140934   4.199   0.046   7.221
12029SOL    HW240935   4.108   0.105   7.326
12030SOL     OW40936   4.284   0.917   6.683
12030SOL    HW140937   4.315   1.006   6.701
12030SOL    HW240938   4.363   0.863   6.684
12031SOL     OW40939   5.019   0.911   6.592
12031SOL    HW140940   4.934   0.869   6.582
12031SOL    HW240941   5.082   0.839   6.589
12032SOL     OW40942   4.938   0.539   5.796
12032SOL    HW140943   4.951   0.454   5.836
12032SOL    HW240944   4.890   0.590   5.862
12033SOL     OW40945   4.018   0.185   6.865
12033SOL    HW140946   4.008   0.217   6.955
12033SOL    HW240947   4.021   0.090   6.873
12034SOL     OW40948   3.730   1.268   6.836
12034SOL    HW140949   3.768   1.231   6.916
12034SOL    HW240950   3.636   1.257   6.848
12035SOL     OW40951   4.483   0.558   6.628
12035SOL    HW140952   4.557   0.544   6.570
12035SOL    HW240953   4.494   0.648   6.660
12036SOL     OW40954   4.091   0.007   6.243
12036SOL    HW140955   4.067   0.099   6.255
12036SOL    HW240956   4.007   9.962   6.232
12037SOL     OW40957   5.364   0.394   5.914
12037SOL    HW140958   5.391   0.334   5.983
12037SOL    HW240959   5.317   0.464   5.961
12038SOL     OW40960   4.757   0.777   6.575
12038SOL    HW140961   4.703   0.784   6.654
12038SOL    HW240962   4.753   0.684   6.552
12039SOL     OW40963   4.765   1.552   7.246
12039SOL    HW140964   4.706   1.514   7.310
12039SOL    HW240965   4.836   1.489   7.237
12040SOL     OW40966   5.568   1.553   7.202
12040SOL    HW140967   5.550   1.472   7.154
12040SOL    HW240968   5.649   1.534   7.250
12041SOL     OW40969   4.114   0.938   7.366
12041SOL    HW140970   4.150   0.902   7.446
12041SOL    HW240971   4.140   0.877   7.297
12042SOL     OW40972   5.330   0.216   5.699
12042SOL    HW140973   5.252   0.165   5.722
12042SOL    HW240974   5.338   0.279   5.770
12043SOL     OW40975   5.052   0.826   5.635
12043SOL    HW140976   5.101   0.768   5.693
12043SOL    HW240977   5.080   0.802   5.547
12044SOL     OW40978   4.732   1.392   6.239
12044SOL    HW140979   4.761   1.305   6.265
12044SOL    HW240980   4.809   1.448   6.250
12045SOL     OW40981   4.032   0.859   6.572
12045SOL    HW140982   4.121   0.879   6.600
12045SOL    HW240983   4.030   0.763   6.566
12046SOL     OW40984   4.036   0.575   6.571
12046SOL    HW140985   3.983   0.495   6.566
12046SOL    HW240986   4.115   0.554   6.522
12047SOL     OW40987   4.827   0.365   7.180
12047SOL    HW140988   4.787   0.447   7.152
12047SOL    HW240989   4.912   0.391   7.216
12048SOL     OW40990   4.870   0.192   6.971
12048SOL    HW140991   4.859   0.239   7.054
12048SOL    HW240992   4.923   0.250   6.917
12049SOL     OW40993   3.745   1.302   5.752
12049SOL    HW140994   3.655   1.315   5.724
12049SOL    HW240995   3.745   1.216   5.794
12050SOL     OW40996   3.809   1.776   6.521
12050SOL    HW140997   3.764   1.694   6.501
12050SOL    HW240998   3.894   1.768   6.476
12051SOL     OW40999   4.292   1.606   6.524
12051SOL    HW141000   4.349   1.573   6.594
12051SOL    HW241001   4.319   1.557   6.447
12052SOL     OW41002   3.715   0.514   6.724
12052SOL    HW141003   3.768   0.449   6.677
12052SOL    HW241004   3.778   0.580   6.752
12053SOL     OW41005   3.952   0.592   7.340
12053SOL    HW141006   4.029   0.556   7.295
12053SOL    HW241007   3.907   0.643   7.274
12054SOL     OW41008   4.552   0.505   5.900
12054SOL    HW141009   4.542   0.445   5.827
12054SOL    HW241010   4.476   0.563   5.894
12055SOL     OW41011   5.340   0.535   6.751
12055SOL    HW141012   5.342   0.476   6.826
12055SOL    HW241013   5.432   0.543   6.725
12056SOL     OW41014   4.297   0.498   6.829
12056SOL    HW141015   4.302   0.402   6.826
12056SOL    HW241016   4.362   0.527   6.765
12057SOL     OW41017   4.134   0.477   5.755
12057SOL    HW141018   4.205   0.539   5.776
12057SOL    HW241019   4.054   0.529   5.763
12058SOL     OW41020   3.833   1.145   7.063
12058SOL    HW141021   3.853   1.105   7.148
12058SOL    HW241022   3.855   1.076   7.000
12059SOL     OW41023   4.996   1.048   6.838
12059SOL    HW141024   5.016   1.010   6.752
12059SOL    HW241025   4.901   1.041   6.846
12060SOL     OW41026   5.081   0.843   5.924
12060SOL    HW141027   5.021   0.844   5.999
12060SOL    HW241028   5.024   0.846   5.847
12061SOL     OW41029   5.511   1.742   6.592
12061SOL    HW141030   5.598   1.746   6.552
12061SOL    HW241031   5.506   1.654   6.629
12062SOL     OW41032   3.809   1.300   6.575
12062SOL    HW141033   3.783   1.293   6.667
12062SOL    HW241034   3.759   1.231   6.530
12063SOL     OW41035   4.476   1.652   7.313
12063SOL    HW141036   4.439   1.705   7.243
12063SOL    HW241037   4.489   1.566   7.275
12064SOL     OW41038   5.495   0.169   6.070
12064SOL    HW141039   5.550   0.170   5.992
12064SOL    HW241040   5.532   0.100   6.125
12065SOL     OW41041   3.852   1.821   7.454
12065SOL    HW141042   3.810   1.735   7.464
12065SOL    HW241043   3.912   1.827   7.528
12066SOL     OW41044   4.984   0.949   6.231
12066SOL    HW141045   5.061   0.896   6.251
12066SOL    HW241046   5.020   1.034   6.206
12067SOL     OW41047   4.352   1.699   5.683
12067SOL    HW141048   4.444   1.677   5.697
12067SOL    HW241049   4.305   1.618   5.702
12068SOL     OW41050   5.378   1.682   6.929
12068SOL    HW141051   5.398   1.629   6.851
12068SOL    HW241052   5.305   1.636   6.971
12069SOL     OW41053   3.991   0.271   6.270
12069SOL    HW141054   3.912   0.317   6.243
12069SOL    HW241055   3.974   0.247   6.362
12070SOL     OW41056   4.689   0.930   5.869
12070SOL    HW141057   4.752   0.961   5.804
12070SOL    HW241058   4.719   0.841   5.890
12071SOL     OW41059   4.067   1.301   7.097
12071SOL    HW141060   4.125   1.302   7.021
12071SOL    HW241061   3.986   1.261   7.064
12072SOL     OW41062   5.368   1.283   6.860
12072SOL    HW141063   5.426   1.281   6.936
12072SOL    HW241064   5.280   1.272   6.896
12073SOL     OW41065   4.782   1.132   6.324
12073SOL    HW141066   4.713   1.086   6.371
12073SOL    HW241067   4.841   1.063   6.293
12074SOL     OW41068   4.747   0.237   6.522
12074SOL    HW141069   4.687   0.194   6.461
12074SOL    HW241070   4.751   0.178   6.597
12075SOL     OW41071   4.350   1.567   6.009
12075SOL    HW141072   4.434   1.551   5.964
12075SOL    HW241073   4.285   1.532   5.949
12076SOL     OW41074   3.985   1.364   5.886
12076SOL    HW141075   3.900   1.351   5.844
12076SOL    HW241076   3.966   1.414   5.965
12077SOL     OW41077   3.862   1.042   7.314
12077SOL    HW141078   3.788   1.005   7.362
12077SOL    HW241079   3.937   0.989   7.341
12078SOL     OW41080   4.371   0.219   7.068
12078SOL    HW141081   4.450   0.188   7.024
12078SOL    HW241082   4.400   0.240   7.157
12079SOL     OW41083   3.815   0.354   5.663
12079SOL    HW141084   3.753   0.408   5.712
12079SOL    HW241085   3.841   0.409   5.589
12080SOL     OW41086   5.123   0.824   6.960
12080SOL    HW141087   5.078   0.904   6.931
12080SOL    HW241088   5.216   0.842   6.945
12081SOL     OW41089   3.773   0.113   5.823
12081SOL    HW141090   3.777   0.201   5.786
12081SOL    HW241091   3.864   0.083   5.822
12082SOL     OW41092   5.255   1.826   6.642
12082SOL    HW141093   5.202   1.746   6.646
12082SOL    HW241094   5.341   1.796   6.613
12083SOL     OW41095   4.456   0.544   7.282
12083SOL    HW141096   4.426   0.530   7.371
12083SOL    HW241097   4.498   0.461   7.257
12084SOL     OW41098   4.101   1.768   7.092
12084SOL    HW141099   4.013   1.800   7.115
12084SOL    HW241100   4.084   1.698   7.029
12085SOL     OW41101   5.382   0.890   6.878
12085SOL    HW141102   5.421   0.808   6.850
12085SOL    HW241103   5.379   0.944   6.799
12086SOL     OW41104   4.348   0.688   6.240
12086SOL    HW141105   4.375   0.780   6.239
12086SOL    HW241106   4.272   0.685   6.181
12087SOL     OW41107   5.475   0.346   7.199
12087SOL    HW141108   5.468   0.364   7.106
12087SOL    HW241109   5.531   0.268   7.204
12088SOL     OW41110   5.472   0.967   7.133
12088SOL    HW141111   5.422   1.042   7.168
12088SOL    HW241112   5.436   0.953   7.045
12089SOL     OW41113   4.485   1.439   5.579
12089SOL    HW141114   4.466   1.386   5.657
12089SOL    HW241115   4.545   1.507   5.611
12090SOL     OW41116   4.398   1.875   6.553
12090SOL    HW141117   4.347   1.794   6.545
12090SOL    HW241118   4.489   1.847   6.544
12091SOL     OW41119   4.588   0.979   6.464
12091SOL    HW141120   4.644   0.905   6.490
12091SOL    HW241121   4.537   0.999   6.543
12092SOL     OW41122   4.875   1.031   5.667
12092SOL    HW141123   4.819   1.042   5.590
12092SOL    HW241124   4.927   0.953   5.647
12093SOL     OW41125   3.832   1.304   7.386
12093SOL    HW141126   3.859   1.222   7.345
12093SOL    HW241127   3.758   1.280   7.443
12094SOL     OW41128   3.865   1.244   6.226
12094SOL    HW141129   3.890   1.200   6.307
12094SOL    HW241130   3.909   1.195   6.157
12095SOL     OW41131   4.516   1.387   7.178
12095SOL    HW141132   4.498   1.305   7.131
12095SOL    HW241133   4.551   1.359   7.263
12096SOL     OW41134   4.180   0.410   6.117
12096SOL    HW141135   4.212   0.352   6.049
12096SOL    HW241136   4.120   0.357   6.169
12097SOL     OW41137   5.405   1.514   6.715
12097SOL    HW141138   5.315   1.525   6.685
12097SOL    HW241139   5.407   1.427   6.756
12098SOL     OW41140   4.033   0.564   6.844
12098SOL    HW141141   4.121   0.529   6.861
12098SOL    HW241142   4.026   0.565   6.749
12099SOL     OW41143   4.506   1.683   6.202
12099SOL    HW141144   4.451   1.644   6.135
12099SOL    HW241145   4.515   1.616   6.270
12100SOL     OW41146   5.199   0.173   6.762
12100SOL    HW141147   5.214   0.158   6.855
12100SOL    HW241148   5.135   0.244   6.759
12101SOL     OW41149   4.768   0.063   6.736
12101SOL    HW141150   4.778   9.968   6.739
12101SOL    HW241151   4.822   0.095   6.807
12102SOL     OW41152   4.428   1.294   5.811
12102SOL    HW141153   4.438   1.210   5.857
12102SOL    HW241154   4.491   1.352   5.854
12103SOL     OW41155   5.104   0.056   5.743
12103SOL    HW141156   5.035   9.990   5.735
12103SOL    HW241157   5.100   0.082   5.835
12104SOL     OW41158   5.082   0.525   6.375
12104SOL    HW141159   5.014   0.562   6.319
12104SOL    HW241160   5.042   0.447   6.413
12105SOL     OW41161   5.243   0.179   6.420
12105SOL    HW141162   5.165   0.212   6.465
12105SOL    HW241163   5.283   0.257   6.382
12106SOL     OW41164   3.765   1.054   5.874
12106SOL    HW141165   3.851   1.025   5.842
12106SOL    HW241166   3.731   0.978   5.920
12107SOL     OW41167   3.907   0.736   7.577
12107SOL    HW141168   3.829   0.692   7.612
12107SOL    HW241169   3.931   0.685   7.500
12108SOL     OW41170   3.897   0.323   8.495
12108SOL    HW141171   3.944   0.273   8.562
12108SOL    HW241172   3.834   0.261   8.460
12109SOL     OW41173   3.725   0.430   8.105
12109SOL    HW141174   3.641   0.439   8.150
12109SOL    HW241175   3.712   0.359   8.043
12110SOL     OW41176   4.337   1.420   8.602
12110SOL    HW141177   4.248   1.394   8.622
12110SOL    HW241178   4.369   1.462   8.681
12111SOL     OW41179   5.317   1.604   8.146
12111SOL    HW141180   5.259   1.556   8.205
12111SOL    HW241181   5.382   1.540   8.119
12112SOL     OW41182   4.862   0.698   8.127
12112SOL    HW141183   4.921   0.765   8.094
12112SOL    HW241184   4.827   0.734   8.208
12113SOL     OW41185   5.552   0.585   7.637
12113SOL    HW141186   5.503   0.583   7.554
12113SOL    HW241187   5.549   0.495   7.669
12114SOL     OW41188   4.533   1.244   8.517
12114SOL    HW141189   4.461   1.299   8.549
12114SOL    HW241190   4.513   1.232   8.424
12115SOL     OW41191   4.644   0.706   9.290
12115SOL    HW141192   4.636   0.754   9.373
12115SOL    HW241193   4.654   0.775   9.224
12116SOL     OW41194   4.400   0.978   8.071
12116SOL    HW141195   4.470   0.975   8.136
12116SOL    HW241196   4.333   1.034   8.110
12117SOL     OW41197   4.424   1.160   9.230
12117SOL    HW141198   4.387   1.115   9.305
12117SOL    HW241199   4.350   1.202   9.187
12118SOL     OW41200   4.068   1.354   8.599
12118SOL    HW141201   3.975   1.340   8.616
12118SOL    HW241202   4.071   1.397   8.514
12119SOL     OW41203   5.184   1.516   8.810
12119SOL    HW141204   5.232   1.599   8.815
12119SOL    HW241205   5.114   1.525   8.874
12120SOL     OW41206   4.168   0.398   8.892
12120SOL    HW141207   4.241   0.343   8.920
12120SOL    HW241208   4.090   0.348   8.917
12121SOL     OW41209   5.315   0.465   8.193
12121SOL    HW141210   5.236   0.417   8.167
12121SOL    HW241211   5.293   0.557   8.182
12122SOL     OW41212   3.957   1.725   7.945
12122SOL    HW141213   3.983   1.766   8.027
12122SOL    HW241214   3.939   1.634   7.969
12123SOL     OW41215   4.948   1.333   9.172
12123SOL    HW141216   5.008   1.279   9.224
12123SOL    HW241217   4.880   1.272   9.145
12124SOL     OW41218   3.893   1.472   8.051
12124SOL    HW141219   3.830   1.507   8.114
12124SOL    HW241220   3.903   1.380   8.075
12125SOL     OW41221   4.000   1.078   8.353
12125SOL    HW141222   4.015   0.984   8.357
12125SOL    HW241223   3.967   1.101   8.440
12126SOL     OW41224   4.285   0.979   7.622
12126SOL    HW141225   4.328   1.024   7.550
12126SOL    HW241226   4.335   1.004   7.700
12127SOL     OW41227   5.261   0.166   8.836
12127SOL    HW141228   5.322   0.238   8.824
12127SOL    HW241229   5.238   0.168   8.929
12128SOL     OW41230   3.845   0.669   8.027
12128SOL    HW141231   3.811   0.583   8.051
12128SOL    HW241232   3.830   0.724   8.104
12129SOL     OW41233   5.552   1.764   7.757
12129SOL    HW141234   5.616   1.727   7.818
12129SOL    HW241235   5.581   1.854   7.743
12130SOL     OW41236   3.760   1.572   7.546
12130SOL    HW141237   3.679   1.527   7.520
12130SOL    HW241238   3.734   1.622   7.624
12131SOL     OW41239   5.443   0.909   8.085
12131SOL    HW141240   5.527   0.894   8.130
12131SOL    HW241241   5.459   0.880   7.995
12132SOL     OW41242   5.360   1.163   7.869
12132SOL    HW141243   5.387   1.103   7.800
12132SOL    HW241244   5.437   1.172   7.925
12133SOL     OW41245   3.848   0.847   9.012
12133SOL    HW141246   3.936   0.829   9.044
12133SOL    HW241247   3.798   0.768   9.035
12134SOL     OW41248   4.301   1.387   8.135
12134SOL    HW141249   4.263   1.299   8.133
12134SOL    HW241250   4.275   1.426   8.051
12135SOL     OW41251   5.034   1.207   8.896
12135SOL    HW141252   5.062   1.146   8.828
12135SOL    HW241253   5.112   1.222   8.949
12136SOL     OW41254   3.926   0.957   8.623
12136SOL    HW141255   4.012   0.927   8.651
12136SOL    HW241256   3.874   0.877   8.614
12137SOL     OW41257   4.914   1.756   9.105
12137SOL    HW141258   4.896   1.833   9.051
12137SOL    HW241259   4.932   1.687   9.041
12138SOL     OW41260   4.076   0.238   9.307
12138SOL    HW141261   4.116   0.321   9.334
12138SOL    HW241262   3.982   0.256   9.305
12139SOL     OW41263   5.311   1.835   7.985
12139SOL    HW141264   5.303   1.778   7.909
12139SOL    HW241265   5.306   1.776   8.060
12140SOL     OW41266   4.275   0.688   7.702
12140SOL    HW141267   4.290   0.779   7.679
12140SOL    HW241268   4.220   0.692   7.780
12141SOL     OW41269   4.987   0.413   8.432
12141SOL    HW141270   4.909   0.358   8.422
12141SOL    HW241271   4.999   0.420   8.527
12142SOL     OW41272   5.280   1.698   7.749
12142SOL    HW141273   5.376   1.704   7.745
12142SOL    HW241274   5.254   1.688   7.657
12143SOL     OW41275   4.525   0.621   8.886
12143SOL    HW141276   4.503   0.588   8.973
12143SOL    HW241277   4.495   0.552   8.826
12144SOL     OW41278   5.112   0.560   9.185
12144SOL    HW141279   5.092   0.560   9.279
12144SOL    HW241280   5.194   0.609   9.179
12145SOL     OW41281   4.677   0.901   9.074
12145SOL    HW141282   4.735   0.846   9.021
12145SOL    HW241283   4.611   0.932   9.013
12146SOL     OW41284   4.729   0.432   8.643
12146SOL    HW141285   4.641   0.438   8.680
12146SOL    HW241286   4.720   0.370   8.570
12147SOL     OW41287   4.751   0.710   7.864
12147SOL    HW141288   4.774   0.704   7.956
12147SOL    HW241289   4.671   0.659   7.856
12148SOL     OW41290   3.808   0.858   8.228
12148SOL    HW141291   3.888   0.832   8.275
12148SOL    HW241292   3.765   0.920   8.287
12149SOL     OW41293   3.787   1.928   9.022
12149SOL    HW141294   3.806   1.914   9.115
12149SOL    HW241295   3.771   1.840   8.988
12150SOL     OW41296   4.533   0.353   7.550
12150SOL    HW141297   4.620   0.392   7.544
12150SOL    HW241298   4.523   0.330   7.643
12151SOL     OW41299   5.494   0.551   9.261
12151SOL    HW141300   5.441   0.626   9.232
12151SOL    HW241301   5.479   0.484   9.194
12152SOL     OW41302   5.145   1.142   8.044
12152SOL    HW141303   5.217   1.145   7.982
12152SOL    HW241304   5.080   1.203   8.008
12153SOL     OW41305   4.197   0.228   8.288
12153SOL    HW141306   4.240   0.314   8.295
12153SOL    HW241307   4.263   0.172   8.247
12154SOL     OW41308   4.693   1.442   7.958
12154SOL    HW141309   4.774   1.431   7.907
12154SOL    HW241310   4.716   1.410   8.046
12155SOL     OW41311   4.100   1.730   8.297
12155SOL    HW141312   4.118   1.638   8.314
12155SOL    HW241313   4.168   1.777   8.346
12156SOL     OW41314   5.540   1.075   8.355
12156SOL    HW141315   5.480   1.098   8.284
12156SOL    HW241316   5.482   1.059   8.430
12157SOL     OW41317   4.945   1.519   8.965
12157SOL    HW141318   4.961   1.451   9.030
12157SOL    HW241319   4.903   1.473   8.892
12158SOL     OW41320   4.011   0.960   7.697
12158SOL    HW141321   4.102   0.966   7.670
12158SOL    HW241322   3.979   0.879   7.659
12159SOL     OW41323   5.243   0.737   8.162
12159SOL    HW141324   5.221   0.729   8.255
12159SOL    HW241325   5.313   0.802   8.159
12160SOL     OW41326   4.194   1.301   9.134
12160SOL    HW141327   4.173   1.294   9.041
12160SOL    HW241328   4.111   1.285   9.178
12161SOL     OW41329   4.820   1.748   7.586
12161SOL    HW141330   4.801   1.721   7.676
12161SOL    HW241331   4.872   1.675   7.551
12162SOL     OW41332   3.910   0.288   8.911
12162SOL    HW141333   3.879   0.372   8.876
12162SOL    HW241334   3.845   0.263   8.975
12163SOL     OW41335   4.262   1.767   7.738
12163SOL    HW141336   4.259   1.726   7.824
12163SOL    HW241337   4.288   1.697   7.679
12164SOL     OW41338   5.173   0.100   7.886
12164SOL    HW141339   5.150   0.071   7.798
12164SOL    HW241340   5.221   0.182   7.873
12165SOL     OW41341   3.931   1.859   8.636
12165SOL    HW141342   4.003   1.803   8.663
12165SOL    HW241343   3.860   1.798   8.613
12166SOL     OW41344   4.514   1.697   8.378
12166SOL    HW141345   4.603   1.727   8.393
12166SOL    HW241346   4.524   1.611   8.337
12167SOL     OW41347   4.108   0.675   7.930
12167SOL    HW141348   4.134   0.582   7.930
12167SOL    HW241349   4.016   0.674   7.955
12168SOL     OW41350   5.200   0.232   9.135
12168SOL    HW141351   5.219   0.256   9.225
12168SOL    HW241352   5.105   0.240   9.127
12169SOL     OW41353   4.450   0.030   7.538
12169SOL    HW141354   4.513   0.094   7.505
12169SOL    HW241355   4.379   0.083   7.574
12170SOL     OW41356   4.504   0.278   9.201
12170SOL    HW141357   4.587   0.232   9.194
12170SOL    HW241358   4.458   0.233   9.272
12171SOL     OW41359   5.035   0.621   8.922
12171SOL    HW141360   5.061   0.594   9.010
12171SOL    HW241361   5.075   0.707   8.911
12172SOL     OW41362   4.539   1.461   8.244
12172SOL    HW141363   4.600   1.388   8.244
12172SOL    HW241364   4.459   1.426   8.205
12173SOL     OW41365   4.646   0.532   8.332
12173SOL    HW141366   4.618   0.512   8.243
12173SOL    HW241367   4.668   0.446   8.370
12174SOL     OW41368   4.185   9.992   7.923
12174SOL    HW141369   4.126   0.006   7.998
12174SOL    HW241370   4.252   0.060   7.933
12175SOL     OW41371   4.041   0.056   7.690
12175SOL    HW141372   4.115   0.106   7.657
12175SOL    HW241373   4.072   0.019   7.773
12176SOL     OW41374   4.782   0.732   8.882
12176SOL    HW141375   4.710   0.670   8.892
12176SOL    HW241376   4.861   0.680   8.897
12177SOL     OW41377   4.184   1.139   8.150
12177SOL    HW141378   4.133   1.129   8.231
12177SOL    HW241379   4.131   1.096   8.083
12178SOL     OW41380   4.986   1.709   8.110
12178SOL    HW141381   5.000   1.647   8.181
12178SOL    HW241382   4.933   1.779   8.149
12179SOL     OW41383   4.787   0.460   7.512
12179SOL    HW141384   4.840   0.505   7.446
12179SOL    HW241385   4.825   0.487   7.595
12180SOL     OW41386   3.816   0.540   8.849
12180SOL    HW141387   3.896   0.592   8.839
12180SOL    HW241388   3.778   0.568   8.932
12181SOL     OW41389   4.302   0.213   8.669
12181SOL    HW141390   4.319   0.199   8.762
12181SOL    HW241391   4.206   0.209   8.662
12182SOL     OW41392   5.298   1.209   8.264
12182SOL    HW141393   5.240   1.175   8.195
12182SOL    HW241394   5.261   1.295   8.285
12183SOL     OW41395   5.158   0.658   8.418
12183SOL    HW141396   5.109   0.575   8.415
12183SOL    HW241397   5.230   0.640   8.478
12184SOL     OW41398   5.515   0.775   7.850
12184SOL    HW141399   5.592   0.738   7.894
12184SOL    HW241400   5.521   0.741   7.760
12185SOL     OW41401   4.168   1.367   7.558
12185SOL    HW141402   4.223   1.314   7.616
12185SOL    HW241403   4.166   1.318   7.476
12186SOL     OW41404   5.485   1.371   8.125
12186SOL    HW141405   5.564   1.318   8.115
12186SOL    HW241406   5.423   1.313   8.171
12187SOL     OW41407   5.087   0.555   7.538
12187SOL    HW141408   5.037   0.545   7.619
12187SOL    HW241409   5.158   0.492   7.546
12188SOL     OW41410   4.269   0.206   7.652
12188SOL    HW141411   4.301   0.212   7.742
12188SOL    HW241412   4.252   0.296   7.626
12189SOL     OW41413   4.821   1.335   8.787
12189SOL    HW141414   4.739   1.316   8.833
12189SOL    HW241415   4.886   1.284   8.834
12190SOL     OW41416   5.313   1.643   9.087
12190SOL    HW141417   5.334   1.672   8.998
12190SOL    HW241418   5.340   1.551   9.089
12191SOL     OW41419   5.314   1.097   8.520
12191SOL    HW141420   5.321   1.173   8.577
12191SOL    HW241421   5.296   1.135   8.433
12192SOL     OW41422   4.633   0.177   8.838
12192SOL    HW141423   4.644   0.133   8.754
12192SOL    HW241424   4.723   0.189   8.871
12193SOL     OW41425   4.691   1.162   9.161
12193SOL    HW141426   4.600   1.172   9.188
12193SOL    HW241427   4.696   1.076   9.120
12194SOL     OW41428   4.460   1.074   7.817
12194SOL    HW141429   4.443   1.039   7.904
12194SOL    HW241430   4.538   1.027   7.786
12195SOL     OW41431   4.166   0.854   8.714
12195SOL    HW141432   4.220   0.866   8.792
12195SOL    HW241433   4.129   0.767   8.723
12196SOL     OW41434   4.991   0.439   8.714
12196SOL    HW141435   5.012   0.506   8.779
12196SOL    HW241436   4.897   0.450   8.699
12197SOL     OW41437   3.864   1.585   8.798
12197SOL    HW141438   3.816   1.620   8.723
12197SOL    HW241439   3.955   1.608   8.781
12198SOL     OW41440   4.019   1.003   7.974
12198SOL    HW141441   4.016   0.995   7.879
12198SOL    HW241442   4.019   0.913   8.006
12199SOL     OW41443   4.280   0.496   8.307
12199SOL    HW141444   4.285   0.560   8.236
12199SOL    HW241445   4.336   0.531   8.376
12200SOL     OW41446   4.965   1.335   7.937
12200SOL    HW141447   5.000   1.423   7.926
12200SOL    HW241448   4.925   1.336   8.024
12201SOL     OW41449   5.297   0.612   7.914
12201SOL    HW141450   5.266   0.654   7.994
12201SOL    HW241451   5.365   0.670   7.880
12202SOL     OW41452   4.115   0.785   9.095
12202SOL    HW141453   4.189   0.813   9.042
12202SOL    HW241454   4.130   0.692   9.111
12203SOL     OW41455   5.322   0.742   9.158
12203SOL    HW141456   5.273   0.817   9.191
12203SOL    HW241457   5.372   0.776   9.084
12204SOL     OW41458   4.743   0.141   9.198
12204SOL    HW141459   4.815   0.204   9.191
12204SOL    HW241460   4.759   0.079   9.126
12205SOL     OW41461   4.262   0.060   9.190
12205SOL    HW141462   4.275   0.083   9.098
12205SOL    HW241463   4.184   0.110   9.215
12206SOL     OW41464   4.298   0.879   8.474
12206SOL    HW141465   4.346   0.962   8.477
12206SOL    HW241466   4.253   0.875   8.558
12207SOL     OW41467   4.997   0.878   8.477
12207SOL    HW141468   4.913   0.846   8.445
12207SOL    HW241469   5.059   0.807   8.457
12208SOL     OW41470   4.913   0.511   7.747
12208SOL    HW141471   4.924   0.439   7.810
12208SOL    HW241472   4.868   0.579   7.797
12209SOL     OW41473   4.024   0.169   8.688
12209SOL    HW141474   3.980   0.203   8.766
12209SOL    HW241475   4.037   0.077   8.707
12210SOL     OW41476   3.810   1.324   8.691
12210SOL    HW141477   3.810   1.249   8.749
12210SOL    HW241478   3.814   1.400   8.749
12211SOL     OW41479   4.433   0.636   8.489
12211SOL    HW141480   4.510   0.631   8.432
12211SOL    HW241481   4.396   0.723   8.472
12212SOL     OW41482   5.492   1.028   9.275
12212SOL    HW141483   5.428   1.083   9.230
12212SOL    HW241484   5.533   1.086   9.339
12213SOL     OW41485   3.978   0.024   8.101
12213SOL    HW141486   3.979   0.120   8.096
12213SOL    HW241487   3.998   0.005   8.193
12214SOL     OW41488   5.298   0.343   7.860
12214SOL    HW141489   5.376   0.313   7.907
12214SOL    HW241490   5.293   0.436   7.878
12215SOL     OW41491   4.748   0.781   8.397
12215SOL    HW141492   4.716   0.798   8.486
12215SOL    HW241493   4.722   0.691   8.379
12216SOL     OW41494   4.667   1.492   9.207
12216SOL    HW141495   4.585   1.495   9.158
12216SOL    HW241496   4.731   1.535   9.150
12217SOL     OW41497   5.649   1.426   9.056
12217SOL    HW141498   5.641   1.483   8.979
12217SOL    HW241499   5.558   1.404   9.078
12218SOL     OW41500   3.995   0.978   9.287
12218SOL    HW141501   4.014   0.970   9.380
12218SOL    HW241502   4.050   0.911   9.246
12219SOL     OW41503   5.217   0.309   7.595
12219SOL    HW141504   5.285   0.253   7.559
12219SOL    HW241505   5.245   0.326   7.686
12220SOL     OW41506   5.072   0.838   7.533
12220SOL    HW141507   5.072   0.742   7.527
12220SOL    HW241508   5.160   0.864   7.506
12221SOL     OW41509   4.048   0.802   8.365
12221SOL    HW141510   4.141   0.820   8.378
12221SOL    HW241511   4.035   0.715   8.401
12222SOL     OW41512   4.060   0.542   8.467
12222SOL    HW141513   3.999   0.468   8.468
12222SOL    HW241514   4.132   0.513   8.411
12223SOL     OW41515   4.923   0.361   9.148
12223SOL    HW141516   4.860   0.394   9.212
12223SOL    HW241517   4.994   0.426   9.149
12224SOL     OW41518   4.914   0.233   8.897
12224SOL    HW141519   4.909   0.284   8.978
12224SOL    HW241520   4.946   0.296   8.832
12225SOL     OW41521   3.720   1.281   7.640
12225SOL    HW141522   3.630   1.312   7.640
12225SOL    HW241523   3.715   1.191   7.674
12226SOL     OW41524   3.833   1.771   8.317
12226SOL    HW141525   3.788   1.692   8.286
12226SOL    HW241526   3.925   1.745   8.325
12227SOL     OW41527   4.192   1.486   8.370
12227SOL    HW141528   4.254   1.474   8.442
12227SOL    HW241529   4.234   1.446   8.294
12228SOL     OW41530   4.648   0.816   8.655
12228SOL    HW141531   4.708   0.799   8.728
12228SOL    HW241532   4.575   0.756   8.670
12229SOL     OW41533   3.742   0.544   8.584
12229SOL    HW141534   3.790   0.472   8.544
12229SOL    HW241535   3.763   0.540   8.677
12230SOL     OW41536   5.163   0.973   9.166
12230SOL    HW141537   5.212   1.055   9.171
12230SOL    HW241538   5.151   0.958   9.073
12231SOL     OW41539   4.528   0.556   7.825
12231SOL    HW141540   4.527   0.461   7.831
12231SOL    HW241541   4.442   0.579   7.792
12232SOL     OW41542   5.362   0.612   8.599
12232SOL    HW141543   5.348   0.554   8.673
12232SOL    HW241544   5.454   0.599   8.575
12233SOL     OW41545   3.966   1.570   9.205
12233SOL    HW141546   3.914   1.605   9.277
12233SOL    HW241547   3.968   1.476   9.220
12234SOL     OW41548   4.457   0.446   8.686
12234SOL    HW141549   4.402   0.369   8.674
12234SOL    HW241550   4.431   0.505   8.616
12235SOL     OW41551   4.167   0.456   7.585
12235SOL    HW141552   4.217   0.533   7.611
12235SOL    HW241553   4.096   0.451   7.649
12236SOL     OW41554   3.875   1.102   8.853
12236SOL    HW141555   3.863   1.036   8.921
12236SOL    HW241556   3.888   1.051   8.772
12237SOL     OW41557   5.091   1.036   8.679
12237SOL    HW141558   5.048   0.977   8.617
12237SOL    HW241559   5.170   1.065   8.633
12238SOL     OW41560   5.044   0.983   7.774
12238SOL    HW141561   5.034   0.938   7.858
12238SOL    HW241562   5.051   0.912   7.710
12239SOL     OW41563   5.532   1.713   8.607
12239SOL    HW141564   5.583   1.734   8.529
12239SOL    HW241565   5.470   1.646   8.577
12240SOL     OW41566   5.012   1.795   8.439
12240SOL    HW141567   5.016   1.705   8.407
12240SOL    HW241568   4.920   1.809   8.461
12241SOL     OW41569   3.756   1.331   8.415
12241SOL    HW141570   3.763   1.330   8.510
12241SOL    HW241571   3.716   1.247   8.392
12242SOL     OW41572   5.517   0.212   7.978
12242SOL    HW141573   5.545   0.195   7.888
12242SOL    HW241574   5.534   0.130   8.025
12243SOL     OW41575   5.039   1.594   7.868
12243SOL    HW141576   5.126   1.624   7.842
12243SOL    HW241577   5.023   1.636   7.952
12244SOL     OW41578   3.836   1.888   9.293
12244SOL    HW141579   3.802   1.803   9.319
12244SOL    HW241580   3.911   1.903   9.350
12245SOL     OW41581   5.045   0.884   8.038
12245SOL    HW141582   5.116   0.830   8.072
12245SOL    HW241583   5.073   0.974   8.054
12246SOL     OW41584   4.574   1.293   8.901
12246SOL    HW141585   4.572   1.281   8.996
12246SOL    HW241586   4.525   1.375   8.887
12247SOL     OW41587   4.337   1.593   7.543
12247SOL    HW141588   4.365   1.598   7.452
12247SOL    HW241589   4.282   1.514   7.547
12248SOL     OW41590   5.343   1.752   8.821
12248SOL    HW141591   5.410   1.727   8.757
12248SOL    HW241592   5.317   1.841   8.796
12249SOL     OW41593   3.987   0.300   8.115
12249SOL    HW141594   3.911   0.349   8.144
12249SOL    HW241595   4.044   0.295   8.192
12250SOL     OW41596   4.961   1.520   7.508
12250SOL    HW141597   4.943   1.459   7.579
12250SOL    HW241598   4.952   1.468   7.428
12251SOL     OW41599   4.539   1.013   8.859
12251SOL    HW141600   4.574   0.986   8.775
12251SOL    HW241601   4.542   1.109   8.857
12252SOL     OW41602   4.677   0.936   7.711
12252SOL    HW141603   4.757   0.973   7.673
12252SOL    HW241604   4.708   0.863   7.765
12253SOL     OW41605   5.180   1.696   7.487
12253SOL    HW141606   5.111   1.630   7.487
12253SOL    HW241607   5.225   1.684   7.404
12254SOL     OW41608   4.082   1.295   8.879
12254SOL    HW141609   4.088   1.316   8.786
12254SOL    HW241610   4.014   1.227   8.883
12255SOL     OW41611   5.313   1.306   8.692
12255SOL    HW141612   5.401   1.306   8.730
12255SOL    HW241613   5.264   1.368   8.746
12256SOL     OW41614   4.717   0.253   8.422
12256SOL    HW141615   4.663   0.208   8.358
12256SOL    HW241616   4.729   0.189   8.493
12257SOL     OW41617   4.254   1.493   7.872
12257SOL    HW141618   4.331   1.445   7.842
12257SOL    HW241619   4.179   1.444   7.837
12258SOL     OW41620   5.469   0.354   8.798
12258SOL    HW141621   5.539   0.419   8.811
12258SOL    HW241622   5.504   0.296   8.730
12259SOL     OW41623   3.929   1.397   7.791
12259SOL    HW141624   3.853   1.340   7.785
12259SOL    HW241625   3.927   1.430   7.881
12260SOL     OW41626   3.781   1.085   9.163
12260SOL    HW141627   3.747   1.012   9.111
12260SOL    HW241628   3.856   1.050   9.210
12261SOL     OW41629   4.385   0.221   8.952
12261SOL    HW141630   4.466   0.202   8.906
12261SOL    HW241631   4.414   0.251   9.039
12262SOL     OW41632   3.823   0.379   7.474
12262SOL    HW141633   3.730   0.399   7.466
12262SOL    HW241634   3.868   0.455   7.438
12263SOL     OW41635   5.153   0.873   8.899
12263SOL    HW141636   5.131   0.925   8.822
12263SOL    HW241637   5.248   0.875   8.903
12264SOL     OW41638   3.796   0.186   7.685
12264SOL    HW141639   3.808   0.247   7.613
12264SOL    HW241640   3.876   0.133   7.686
12265SOL     OW41641   4.907   1.297   7.664
12265SOL    HW141642   4.882   1.209   7.633
12265SOL    HW241643   4.908   1.289   7.759
12266SOL     OW41644   4.339   0.833   8.928
12266SOL    HW141645   4.400   0.906   8.918
12266SOL    HW241646   4.394   0.755   8.921
12267SOL     OW41647   5.262   1.827   8.310
12267SOL    HW141648   5.289   1.746   8.267
12267SOL    HW241649   5.180   1.804   8.354
12268SOL     OW41650   4.472   0.545   9.139
12268SOL    HW141651   4.520   0.595   9.205
12268SOL    HW241652   4.479   0.454   9.168
12269SOL     OW41653   5.401   0.881   8.679
12269SOL    HW141654   5.380   0.796   8.641
12269SOL    HW241655   5.370   0.945   8.615
12270SOL     OW41656   4.950   0.295   7.929
12270SOL    HW141657   5.021   0.233   7.920
12270SOL    HW241658   4.970   0.344   8.009
12271SOL     OW41659   4.300   0.714   8.134
12271SOL    HW141660   4.344   0.796   8.113
12271SOL    HW241661   4.236   0.702   8.063
12272SOL     OW41662   5.446   0.352   9.079
12272SOL    HW141663   5.449   0.355   8.983
12272SOL    HW241664   5.363   0.310   9.099
12273SOL     OW41665   5.427   0.893   8.951
12273SOL    HW141666   5.480   0.966   8.984
12273SOL    HW241667   5.443   0.894   8.856
12274SOL     OW41668   4.627   1.392   7.444
12274SOL    HW141669   4.558   1.345   7.491
12274SOL    HW241670   4.708   1.347   7.466
12275SOL     OW41671   4.301   1.864   8.422
12275SOL    HW141672   4.287   1.841   8.514
12275SOL    HW241673   4.376   1.811   8.395
12276SOL     OW41674   4.592   0.985   8.264
12276SOL    HW141675   4.653   0.924   8.306
12276SOL    HW241676   4.638   1.068   8.263
12277SOL     OW41677   4.869   1.049   7.531
12277SOL    HW141678   4.833   1.062   7.443
12277SOL    HW241679   4.931   0.976   7.522
12278SOL     OW41680   5.624   1.532   8.302
12278SOL    HW141681   5.571   1.491   8.233
12278SOL    HW241682   5.636   1.462   8.367
12279SOL     OW41683   3.947   1.305   9.255
12279SOL    HW141684   3.886   1.234   9.236
12279SOL    HW241685   3.963   1.299   9.349
12280SOL     OW41686   3.877   1.204   8.120
12280SOL    HW141687   3.895   1.177   8.210
12280SOL    HW241688   3.909   1.132   8.066
12281SOL     OW41689   5.562   0.177   8.602
12281SOL    HW141690   5.608   0.095   8.617
12281SOL    HW241691   5.624   0.231   8.552
12282SOL     OW41692   4.168   0.410   7.932
12282SOL    HW141693   4.242   0.350   7.928
12282SOL    HW241694   4.104   0.366   7.988
12283SOL     OW41695   5.361   1.522   8.518
12283SOL    HW141696   5.305   1.505   8.442
12283SOL    HW241697   5.341   1.450   8.578
12284SOL     OW41698   4.070   0.604   8.741
12284SOL    HW141699   4.112   0.534   8.790
12284SOL    HW241700   4.067   0.572   8.651
12285SOL     OW41701   4.578   1.688   8.023
12285SOL    HW141702   4.630   1.609   8.007
12285SOL    HW241703   4.519   1.664   8.095
12286SOL     OW41704   4.686   0.045   8.600
12286SOL    HW141705   4.600   0.030   8.561
12286SOL    HW241706   4.719   9.957   8.619
12287SOL     OW41707   4.481   1.356   7.797
12287SOL    HW141708   4.475   1.261   7.797
12287SOL    HW241709   4.552   1.376   7.859
12288SOL     OW41710   5.095   0.019   7.628
12288SOL    HW141711   5.166   0.010   7.565
12288SOL    HW241712   5.039   0.088   7.591
12289SOL     OW41713   5.010   0.451   8.154
12289SOL    HW141714   4.963   0.533   8.140
12289SOL    HW241715   5.005   0.436   8.248
12290SOL     OW41716   3.745   1.030   7.748
12290SOL    HW141717   3.837   1.016   7.727
12290SOL    HW241718   3.714   0.944   7.779
12291SOL     OW41719   4.573   1.662   7.728
12291SOL    HW141720   4.540   1.572   7.732
12291SOL    HW241721   4.573   1.691   7.819
12292SOL     OW41722   3.974   0.566   9.444
12292SOL    HW141723   3.908   0.536   9.506
12292SOL    HW241724   3.925   0.584   9.363
12293SOL     OW41725   5.473   0.634   9.523
12293SOL    HW141726   5.488   0.606   9.433
12293SOL    HW241727   5.382   0.608   9.540
12294SOL     OW41728   3.964   1.774   9.763
12294SOL    HW141729   3.991   1.815   9.845
12294SOL    HW241730   3.937   1.686   9.787
12295SOL     OW41731   3.863   1.536   9.843
12295SOL    HW141732   3.828   1.559   9.930
12295SOL    HW241733   3.887   1.444   9.850
12296SOL     OW41734   4.290   1.056   9.478
12296SOL    HW141735   4.199   1.041   9.505
12296SOL    HW241736   4.313   1.141   9.517
12297SOL     OW41737   3.827   0.595   9.901
12297SOL    HW141738   3.804   0.510   9.939
12297SOL    HW241739   3.789   0.659   9.962
12298SOL     OW41740   5.550   1.803   9.608
12298SOL    HW141741   5.611   1.764   9.671
12298SOL    HW241742   5.581   1.893   9.597
12299SOL     OW41743   3.767   1.640   9.396
12299SOL    HW141744   3.747   1.546   9.397
12299SOL    HW241745   3.725   1.675   9.474
12300SOL     OW41746   5.479   0.917   9.926
12300SOL    HW141747   5.493   0.899   9.833
12300SOL    HW241748   5.389   0.889   9.942
12301SOL     OW41749   5.322   1.112   9.720
12301SOL    HW141750   5.395   1.104   9.781
12301SOL    HW241751   5.254   1.054   9.756
12302SOL     OW41752   4.428   1.427   9.966
12302SOL    HW141753   4.350   1.374   9.979
12302SOL    HW241754   4.447   1.419   9.872
12303SOL     OW41755   4.537   0.001   9.816
12303SOL    HW141756   4.569   0.090   9.805
12303SOL    HW241757   4.443   0.011   9.833
12304SOL     OW41758   5.238   0.989   9.469
12304SOL    HW141759   5.318   0.970   9.419
12304SOL    HW241760   5.270   1.009   9.557
12305SOL     OW41761   4.318   0.782   9.591
12305SOL    HW141762   4.318   0.846   9.521
12305SOL    HW241763   4.298   0.832   9.670
12306SOL     OW41764   5.276   1.773   9.592
12306SOL    HW141765   5.371   1.778   9.601
12306SOL    HW241766   5.261   1.752   9.500
12307SOL     OW41767   4.767   0.658   9.742
12307SOL    HW141768   4.788   0.609   9.821
12307SOL    HW241769   4.676   0.636   9.723
12308SOL     OW41770   3.743   0.827   0.040
12308SOL    HW141771   3.807   0.898   0.031
12308SOL    HW241772   3.734   0.815   0.135
12309SOL     OW41773   4.564   0.370   9.516
12309SOL    HW141774   4.636   0.396   9.459
12309SOL    HW241775   4.514   0.306   9.465
12310SOL     OW41776   4.985   1.108   9.915
12310SOL    HW141777   5.039   1.052   9.860
12310SOL    HW241778   4.934   1.161   9.853
12311SOL     OW41779   4.724   1.499   9.844
12311SOL    HW141780   4.634   1.489   9.814
12311SOL    HW241781   4.763   1.412   9.836
12312SOL     OW41782   4.104   1.770   0.207
12312SOL    HW141783   4.099   1.676   0.190
12312SOL    HW241784   4.179   1.780   0.266
12313SOL     OW41785   4.875   1.791   9.507
12313SOL    HW141786   4.789   1.785   9.549
12313SOL    HW241787   4.884   1.709   9.459
12314SOL     OW41788   4.211   1.799   9.628
12314SOL    HW141789   4.141   1.759   9.679
12314SOL    HW241790   4.273   1.728   9.612
12315SOL     OW41791   5.076   0.145   9.701
12315SOL    HW141792   5.023   0.184   9.632
12315SOL    HW241793   5.154   0.201   9.707
12316SOL     OW41794   4.394   0.146   9.418
12316SOL    HW141795   4.431   0.072   9.466
12316SOL    HW241796   4.341   0.106   9.349
12317SOL     OW41797   4.280   0.082   9.845
12317SOL    HW141798   4.193   0.044   9.863
12317SOL    HW241799   4.264   0.143   9.774
12318SOL     OW41800   5.059   1.191   9.380
12318SOL    HW141801   5.115   1.113   9.388
12318SOL    HW241802   5.022   1.202   9.467
12319SOL     OW41803   4.019   0.034   9.490
12319SOL    HW141804   4.049   0.099   9.426
12319SOL    HW241805   4.094   0.022   9.549
12320SOL     OW41806   4.623   0.253   9.759
12320SOL    HW141807   4.593   0.291   9.676
12320SOL    HW241808   4.716   0.274   9.762
12321SOL     OW41809   4.185   1.291   0.010
12321SOL    HW141810   4.101   1.302   9.964
12321SOL    HW241811   4.190   1.197   0.028
12322SOL     OW41812   5.007   1.840   9.903
12322SOL    HW141813   4.933   1.856   9.844
12322SOL    HW241814   4.988   1.755   9.942
12323SOL     OW41815   4.788   0.479   9.365
12323SOL    HW141816   4.735   0.554   9.339
12323SOL    HW241817   4.867   0.517   9.403
12324SOL     OW41818   4.557   0.451   9.946
12324SOL    HW141819   4.518   0.512   9.882
12324SOL    HW241820   4.568   0.370   9.897
12325SOL     OW41821   5.574   0.847   9.670
12325SOL    HW141822   5.651   0.801   9.705
12325SOL    HW241823   5.534   0.783   9.611
12326SOL     OW41824   4.296   1.447   9.352
12326SOL    HW141825   4.317   1.393   9.428
12326SOL    HW241826   4.265   1.384   9.286
12327SOL     OW41827   4.250   0.260   9.634
12327SOL    HW141828   4.301   0.223   9.562
12327SOL    HW241829   4.238   0.352   9.611
12328SOL     OW41830   4.023   0.037   9.956
12328SOL    HW141831   4.027   0.131   9.941
12328SOL    HW241832   4.024   0.027   0.051
12329SOL     OW41833   5.283   0.321   9.681
12329SOL    HW141834   5.368   0.328   9.725
12329SOL    HW241835   5.265   0.410   9.650
12330SOL     OW41836   5.228   0.320   9.397
12330SOL    HW141837   5.268   0.276   9.472
12330SOL    HW241838   5.219   0.411   9.425
12331SOL     OW41839   4.974   0.850   9.330
12331SOL    HW141840   4.994   0.757   9.323
12331SOL    HW241841   5.042   0.893   9.277
12332SOL     OW41842   3.671   1.391   9.447
12332SOL    HW141843   3.579   1.377   9.422
12332SOL    HW241844   3.690   1.320   9.509
12333SOL     OW41845   4.503   0.579   9.696
12333SOL    HW141846   4.509   0.509   9.631
12333SOL    HW241847   4.441   0.642   9.657
12334SOL     OW41848   4.222   0.520   9.539
12334SOL    HW141849   4.261   0.607   9.547
12334SOL    HW241850   4.138   0.534   9.497
12335SOL     OW41851   5.536   0.257   9.794
12335SOL    HW141852   5.585   0.241   9.713
12335SOL    HW241853   5.512   0.170   9.825
12336SOL     OW41854   5.196   1.563   9.754
12336SOL    HW141855   5.212   1.644   9.707
12336SOL    HW241856   5.100   1.556   9.758
12337SOL     OW41857   4.400   1.619   9.550
12337SOL    HW141858   4.368   1.572   9.473
12337SOL    HW241859   4.428   1.550   9.610
12338SOL     OW41860   5.533   0.079   0.268
12338SOL    HW141861   5.619   0.114   0.245
12338SOL    HW241862   5.471   0.135   0.221
12339SOL     OW41863   4.959   1.578   9.310
12339SOL    HW141864   4.967   1.500   9.254
12339SOL    HW241865   4.937   1.649   9.249
12340SOL     OW41866   4.644   0.863   9.516
12340SOL    HW141867   4.685   0.945   9.487
12340SOL    HW241868   4.590   0.888   9.591
12341SOL     OW41869   5.206   1.716   9.330
12341SOL    HW141870   5.128   1.660   9.326
12341SOL    HW241871   5.253   1.696   9.249
12342SOL     OW41872   4.021   1.306   9.518
12342SOL    HW141873   4.097   1.344   9.562
12342SOL    HW241874   3.998   1.229   9.570
12343SOL     OW41875   3.809   0.309   9.321
12343SOL    HW141876   3.763   0.277   9.244
12343SOL    HW241877   3.791   0.403   9.323
12344SOL     OW41878   3.806   0.190   9.579
12344SOL    HW141879   3.789   0.232   9.495
12344SOL    HW241880   3.871   0.122   9.559
12345SOL     OW41881   4.881   0.336   9.767
12345SOL    HW141882   4.948   0.274   9.796
12345SOL    HW241883   4.879   0.403   9.836
12346SOL     OW41884   4.796   1.053   9.388
12346SOL    HW141885   4.758   1.077   9.303
12346SOL    HW241886   4.864   0.989   9.366
12347SOL     OW41887   3.917   1.260   9.907
12347SOL    HW141888   3.924   1.182   9.963
12347SOL    HW241889   3.931   1.227   9.818
12348SOL     OW41890   4.072   0.312   9.933
12348SOL    HW141891   4.128   0.330   9.857
12348SOL    HW241892   4.109   0.364   0.004
12349SOL     OW41893   5.021   9.969   9.467
12349SOL    HW141894   5.092   9.957   9.405
12349SOL    HW241895   4.990   0.058   9.450
12350SOL     OW41896   3.700   1.157   9.609
12350SOL    HW141897   3.789   1.151   9.642
12350SOL    HW241898   3.696   1.093   9.538
12351SOL     OW41899   4.627   1.767   9.627
12351SOL    HW141900   4.552   1.718   9.593
12351SOL    HW241901   4.615   1.767   9.722
12352SOL     OW41902   3.927   2.540   0.132
12352SOL    HW141903   3.870   2.525   0.207
12352SOL    HW241904   4.001   2.480   0.146
12353SOL     OW41905   3.891   2.179   1.017
12353SOL    HW141906   3.934   2.139   1.093
12353SOL    HW241907   3.832   2.111   0.984
12354SOL     OW41908   3.692   2.286   0.630
12354SOL    HW141909   3.602   2.312   0.650
12354SOL    HW241910   3.683   2.201   0.587
12355SOL     OW41911   4.332   3.163   1.219
12355SOL    HW141912   4.252   3.136   1.174
12355SOL    HW241913   4.319   3.257   1.236
12356SOL     OW41914   5.244   3.342   0.764
12356SOL    HW141915   5.191   3.361   0.686
12356SOL    HW241916   5.335   3.345   0.733
12357SOL     OW41917   4.829   2.567   0.662
12357SOL    HW141918   4.856   2.652   0.629
12357SOL    HW241919   4.798   2.584   0.751
12358SOL     OW41920   5.383   2.471   0.271
12358SOL    HW141921   5.319   2.480   0.200
12358SOL    HW241922   5.378   2.379   0.296
12359SOL     OW41923   4.564   3.035   1.088
12359SOL    HW141924   4.487   3.037   1.145
12359SOL    HW241925   4.553   3.111   1.030
12360SOL     OW41926   4.604   2.587   1.823
12360SOL    HW141927   4.544   2.518   1.795
12360SOL    HW241928   4.619   2.640   1.745
12361SOL     OW41929   4.476   2.914   0.676
12361SOL    HW141930   4.491   2.856   0.750
12361SOL    HW241931   4.386   2.943   0.685
12362SOL     OW41932   4.502   3.054   1.832
12362SOL    HW141933   4.462   3.103   1.760
12362SOL    HW241934   4.435   2.990   1.856
12363SOL     OW41935   4.071   3.273   1.057
12363SOL    HW141936   3.995   3.219   1.033
12363SOL    HW241937   4.100   3.312   0.975
12364SOL     OW41938   5.165   3.350   1.346
12364SOL    HW141939   5.217   3.430   1.358
12364SOL    HW241940   5.095   3.356   1.411
12365SOL     OW41941   4.195   2.281   1.547
12365SOL    HW141942   4.268   2.221   1.531
12365SOL    HW241943   4.122   2.223   1.571
12366SOL     OW41944   5.315   2.378   0.693
12366SOL    HW141945   5.222   2.357   0.692
12366SOL    HW241946   5.325   2.444   0.625
12367SOL     OW41947   3.880   3.541   0.429
12367SOL    HW141948   3.918   3.602   0.491
12367SOL    HW241949   3.876   3.458   0.477
12368SOL     OW41950   4.875   3.195   1.713
12368SOL    HW141951   4.906   3.183   1.803
12368SOL    HW241952   4.839   3.110   1.688
12369SOL     OW41953   3.876   3.317   0.589
12369SOL    HW141954   3.845   3.358   0.669
12369SOL    HW241955   3.863   3.223   0.603
12370SOL     OW41956   4.047   2.945   0.903
12370SOL    HW141957   4.045   2.850   0.914
12370SOL    HW241958   3.977   2.977   0.960
12371SOL     OW41959   4.303   3.642   1.483
12371SOL    HW141960   4.216   3.632   1.521
12371SOL    HW241961   4.319   3.736   1.482
12372SOL     OW41962   4.390   2.789   0.144
12372SOL    HW141963   4.427   2.853   0.204
12372SOL    HW241964   4.377   2.711   0.197
12373SOL     OW41965   5.343   2.050   1.500
12373SOL    HW141966   5.364   1.959   1.478
12373SOL    HW241967   5.273   2.044   1.564
12374SOL     OW41968   3.818   2.526   0.547
12374SOL    HW141969   3.783   2.440   0.569
12374SOL    HW241970   3.810   2.576   0.628
12375SOL     OW41971   3.829   3.438   0.101
12375SOL    HW141972   3.822   3.349   0.136
12375SOL    HW241973   3.738   3.467   0.090
12376SOL     OW41974   5.451   2.804   0.645
12376SOL    HW141975   5.453   2.720   0.600
12376SOL    HW241976   5.432   2.868   0.577
12377SOL     OW41977   5.411   2.991   0.440
12377SOL    HW141978   5.488   2.976   0.385
12377SOL    HW241979   5.430   3.073   0.486
12378SOL     OW41980   3.840   2.607   1.486
12378SOL    HW141981   3.862   2.572   1.572
12378SOL    HW241982   3.766   2.666   1.502
12379SOL     OW41983   4.335   3.277   0.735
12379SOL    HW141984   4.300   3.189   0.741
12379SOL    HW241985   4.329   3.299   0.642
12380SOL     OW41986   4.990   3.091   1.395
12380SOL    HW141987   5.010   3.021   1.333
12380SOL    HW241988   5.053   3.080   1.466
12381SOL     OW41989   3.977   2.771   1.302
12381SOL    HW141990   4.035   2.721   1.244
12381SOL    HW241991   3.936   2.705   1.358
12382SOL     OW41992   5.231   2.905   0.247
12382SOL    HW141993   5.188   2.829   0.285
12382SOL    HW241994   5.304   2.923   0.307
12383SOL     OW41995   4.925   3.682   1.618
12383SOL    HW141996   4.913   3.732   1.537
12383SOL    HW241997   4.934   3.591   1.589
12384SOL     OW41998   4.034   2.208   1.814
12384SOL    HW141999   4.086   2.233   1.890
12384SOL    HW242000   3.951   2.178   1.851
12385SOL     OW42001   5.378   3.635   0.632
12385SOL    HW142002   5.323   3.608   0.558
12385SOL    HW242003   5.456   3.580   0.624
12386SOL     OW42004   4.304   2.603   0.321
12386SOL    HW142005   4.364   2.532   0.345
12386SOL    HW242006   4.233   2.597   0.384
12387SOL     OW42007   5.026   2.223   0.930
12387SOL    HW142008   4.945   2.176   0.952
12387SOL    HW242009   5.093   2.155   0.930
12388SOL     OW42010   5.296   3.535   0.385
12388SOL    HW142011   5.384   3.500   0.399
12388SOL    HW242012   5.289   3.546   0.290
12389SOL     OW42013   4.499   2.429   1.466
12389SOL    HW142014   4.489   2.403   1.558
12389SOL    HW242015   4.465   2.355   1.416
12390SOL     OW42016   5.137   2.322   1.641
12390SOL    HW142017   5.180   2.355   1.720
12390SOL    HW242018   5.146   2.227   1.647
12391SOL     OW42019   4.669   2.738   1.594
12391SOL    HW142020   4.718   2.671   1.548
12391SOL    HW242021   4.610   2.775   1.528
12392SOL     OW42022   4.682   2.250   1.189
12392SOL    HW142023   4.657   2.177   1.247
12392SOL    HW242024   4.704   2.209   1.106
12393SOL     OW42025   4.681   2.503   0.404
12393SOL    HW142026   4.700   2.500   0.497
12393SOL    HW242027   4.597   2.457   0.395
12394SOL     OW42028   3.799   2.703   0.764
12394SOL    HW142029   3.884   2.682   0.803
12394SOL    HW242030   3.763   2.771   0.821
12395SOL     OW42031   3.830   3.725   1.556
12395SOL    HW142032   3.801   3.710   1.646
12395SOL    HW242033   3.806   3.645   1.509
12396SOL     OW42034   4.679   2.222   0.161
12396SOL    HW142035   4.625   2.250   0.087
12396SOL    HW242036   4.673   2.126   0.159
12397SOL     OW42037   5.434   2.428   1.824
12397SOL    HW142038   5.423   2.503   1.766
12397SOL    HW242039   5.459   2.356   1.766
12398SOL     OW42040   5.124   3.013   0.518
12398SOL    HW142041   5.209   3.006   0.476
12398SOL    HW242042   5.073   3.069   0.460
12399SOL     OW42043   4.388   2.155   0.900
12399SOL    HW142044   4.371   2.061   0.910
12399SOL    HW242045   4.448   2.162   0.826
12400SOL     OW42046   4.738   3.324   0.522
12400SOL    HW142047   4.709   3.409   0.490
12400SOL    HW242048   4.674   3.262   0.487
12401SOL     OW42049   4.066   3.695   0.858
12401SOL    HW142050   4.125   3.623   0.875
12401SOL    HW242051   4.118   3.774   0.873
12402SOL     OW42052   5.526   2.921   0.880
12402SOL    HW142053   5.498   2.885   0.796
12402SOL    HW242054   5.444   2.936   0.928
12403SOL     OW42055   4.944   3.401   1.528
12403SOL    HW142056   4.944   3.330   1.592
12403SOL    HW242057   4.882   3.373   1.461
12404SOL     OW42058   4.104   2.809   0.248
12404SOL    HW142059   4.189   2.765   0.256
12404SOL    HW242060   4.042   2.740   0.227
12405SOL     OW42061   5.151   2.652   0.740
12405SOL    HW142062   5.116   2.563   0.744
12405SOL    HW242063   5.218   2.648   0.671
12406SOL     OW42064   4.180   3.187   1.758
12406SOL    HW142065   4.149   3.198   1.668
12406SOL    HW242066   4.106   3.148   1.804
12407SOL     OW42067   4.827   3.631   0.180
12407SOL    HW142068   4.798   3.583   0.258
12407SOL    HW242069   4.859   3.563   0.121
12408SOL     OW42070   3.950   2.119   1.511
12408SOL    HW142071   3.883   2.182   1.537
12408SOL    HW242072   3.911   2.034   1.529
12409SOL     OW42073   5.270   3.307   0.052
12409SOL    HW142074   5.365   3.311   0.064
12409SOL    HW242075   5.252   3.215   0.033
12410SOL     OW42076   4.254   3.607   0.356
12410SOL    HW142077   4.257   3.515   0.384
12410SOL    HW242078   4.313   3.611   0.281
12411SOL     OW42079   5.121   1.961   0.445
12411SOL    HW142080   5.113   1.939   0.352
12411SOL    HW242081   5.196   1.910   0.475
12412SOL     OW42082   3.984   3.660   1.196
12412SOL    HW142083   4.011   3.577   1.235
12412SOL    HW242084   3.931   3.636   1.120
12413SOL     OW42085   4.677   3.580   0.903
12413SOL    HW142086   4.761   3.536   0.890
12413SOL    HW242087   4.619   3.539   0.838
12414SOL     OW42088   4.094   2.568   0.499
12414SOL    HW142089   4.140   2.484   0.502
12414SOL    HW242090   4.001   2.546   0.507
12415SOL     OW42091   5.151   2.050   1.697
12415SOL    HW142092   5.172   2.045   1.790
12415SOL    HW242093   5.095   1.974   1.681
12416SOL     OW42094   4.531   2.136   1.855
12416SOL    HW142095   4.602   2.090   1.811
12416SOL    HW242096   4.473   2.066   1.886
12417SOL     OW42097   4.585   3.401   1.200
12417SOL    HW142098   4.572   3.363   1.113
12417SOL    HW242099   4.658   3.352   1.237
12418SOL     OW42100   5.040   2.455   1.417
12418SOL    HW142101   5.089   2.415   1.488
12418SOL    HW242102   5.087   2.537   1.398
12419SOL     OW42103   4.533   3.277   0.947
12419SOL    HW142104   4.618   3.265   0.904
12419SOL    HW242105   4.469   3.269   0.875
12420SOL     OW42106   4.655   2.352   0.870
12420SOL    HW142107   4.609   2.323   0.791
12420SOL    HW242108   4.692   2.273   0.908
12421SOL     OW42109   5.163   3.040   0.018
12421SOL    HW142110   5.207   2.989   0.086
12421SOL    HW242111   5.070   3.039   0.043
12422SOL     OW42112   4.774   2.540   1.433
12422SOL    HW142113   4.717   2.468   1.457
12422SOL    HW242114   4.862   2.503   1.434
12423SOL     OW42115   4.926   3.483   0.814
12423SOL    HW142116   4.939   3.543   0.741
12423SOL    HW242117   5.007   3.432   0.817
12424SOL     OW42118   4.218   3.028   0.705
12424SOL    HW142119   4.164   2.997   0.777
12424SOL    HW242120   4.170   3.001   0.626
12425SOL     OW42121   4.965   3.671   0.614
12425SOL    HW142122   5.021   3.726   0.559
12425SOL    HW242123   4.893   3.728   0.640
12426SOL     OW42124   4.772   2.482   9.990
12426SOL    HW142125   4.700   2.419   9.978
12426SOL    HW242126   4.815   2.455   0.071
12427SOL     OW42127   3.805   2.369   1.349
12427SOL    HW142128   3.897   2.353   1.329
12427SOL    HW242129   3.805   2.453   1.394
12428SOL     OW42130   4.295   2.035   1.195
12428SOL    HW142131   4.310   1.967   1.129
12428SOL    HW242132   4.200   2.035   1.208
12429SOL     OW42133   4.762   1.897   0.772
12429SOL    HW142134   4.682   1.932   0.734
12429SOL    HW242135   4.734   1.818   0.820
12430SOL     OW42136   5.076   3.053   0.786
12430SOL    HW142137   4.999   2.997   0.793
12430SOL    HW242138   5.103   3.046   0.694
12431SOL     OW42139   5.200   2.436   0.980
12431SOL    HW142140   5.132   2.368   0.977
12431SOL    HW242141   5.258   2.415   0.907
12432SOL     OW42142   5.571   2.642   0.382
12432SOL    HW142143   5.622   2.586   0.440
12432SOL    HW242144   5.518   2.581   0.329
12433SOL     OW42145   4.208   3.326   0.237
12433SOL    HW142146   4.126   3.285   0.263
12433SOL    HW242147   4.238   3.275   0.162
12434SOL     OW42148   5.472   3.213   0.597
12434SOL    HW142149   5.559   3.179   0.620
12434SOL    HW242150   5.490   3.297   0.554
12435SOL     OW42151   5.141   2.438   0.113
12435SOL    HW142152   5.065   2.432   0.172
12435SOL    HW242153   5.162   2.347   0.092
12436SOL     OW42154   5.450   3.107   1.626
12436SOL    HW142155   5.514   3.051   1.670
12436SOL    HW242156   5.496   3.190   1.614
12437SOL     OW42157   4.769   3.258   1.362
12437SOL    HW142158   4.692   3.204   1.381
12437SOL    HW242159   4.842   3.196   1.364
12438SOL     OW42160   5.335   3.496   1.659
12438SOL    HW142161   5.319   3.524   1.569
12438SOL    HW242162   5.418   3.447   1.654
12439SOL     OW42163   4.845   3.082   1.071
12439SOL    HW142164   4.757   3.051   1.096
12439SOL    HW242165   4.832   3.128   0.988
12440SOL     OW42166   5.292   2.986   1.030
12440SOL    HW142167   5.294   3.011   1.122
12440SOL    HW242168   5.245   2.902   1.029
12441SOL     OW42169   4.622   2.030   1.338
12441SOL    HW142170   4.639   1.962   1.273
12441SOL    HW242171   4.692   2.020   1.402
12442SOL     OW42172   4.746   2.947   1.758
12442SOL    HW142173   4.660   2.980   1.783
12442SOL    HW242174   4.728   2.874   1.698
12443SOL     OW42175   4.488   2.924   0.392
12443SOL    HW142176   4.475   2.906   0.485
12443SOL    HW242177   4.560   2.866   0.366
12444SOL     OW42178   4.188   2.556   1.189
12444SOL    HW142179   4.239   2.594   1.261
12444SOL    HW242180   4.139   2.485   1.230
12445SOL     OW42181   4.952   2.227   1.285
12445SOL    HW142182   4.985   2.308   1.324
12445SOL    HW242183   4.867   2.251   1.248
12446SOL     OW42184   3.807   3.492   1.408
12446SOL    HW142185   3.756   3.511   1.329
12446SOL    HW242186   3.886   3.450   1.375
12447SOL     OW42187   4.052   2.971   0.475
12447SOL    HW142188   4.044   3.053   0.426
12447SOL    HW242189   4.077   2.906   0.409
12448SOL     OW42190   4.285   2.377   0.767
12448SOL    HW142191   4.273   2.375   0.672
12448SOL    HW242192   4.338   2.300   0.786
12449SOL     OW42193   4.964   3.216   0.403
12449SOL    HW142194   5.028   3.281   0.430
12449SOL    HW242195   4.884   3.240   0.450
12450SOL     OW42196   5.072   3.253   1.096
12450SOL    HW142197   5.100   3.279   1.184
12450SOL    HW242198   4.995   3.199   1.110
12451SOL     OW42199   5.284   2.587   0.501
12451SOL    HW142200   5.207   2.621   0.455
12451SOL    HW242201   5.339   2.549   0.433
12452SOL     OW42202   4.053   3.406   1.295
12452SOL    HW142203   4.043   3.350   1.218
12452SOL    HW242204   4.148   3.420   1.302
12453SOL     OW42205   4.146   2.626   1.630
12453SOL    HW142206   4.203   2.637   1.553
12453SOL    HW242207   4.113   2.536   1.622
12454SOL     OW42208   5.381   2.663   1.686
12454SOL    HW142209   5.291   2.693   1.670
12454SOL    HW242210   5.431   2.695   1.610
12455SOL     OW42211   4.730   1.986   1.742
12455SOL    HW142212   4.771   1.999   1.657
12455SOL    HW242213   4.779   1.913   1.781
12456SOL     OW42214   4.166   1.953   1.781
12456SOL    HW142215   4.140   1.890   1.714
12456SOL    HW242216   4.119   2.033   1.758
12457SOL     OW42217   5.169   2.732   1.005
12457SOL    HW142218   5.161   2.724   0.910
12457SOL    HW242219   5.174   2.641   1.036
12458SOL     OW42220   4.931   2.435   0.295
12458SOL    HW142221   4.960   2.355   0.339
12458SOL    HW242222   4.839   2.443   0.319
12459SOL     OW42223   4.017   2.070   1.244
12459SOL    HW142224   3.989   2.074   1.336
12459SOL    HW242225   4.009   1.978   1.220
12460SOL     OW42226   3.782   3.167   1.261
12460SOL    HW142227   3.825   3.110   1.324
12460SOL    HW242228   3.689   3.163   1.284
12461SOL     OW42229   4.469   2.534   0.981
12461SOL    HW142230   4.532   2.480   0.934
12461SOL    HW242231   4.487   2.623   0.950
12462SOL     OW42232   5.519   2.836   1.849
12462SOL    HW142233   5.470   2.770   1.800
12462SOL    HW242234   5.516   2.805   1.939
12463SOL     OW42235   4.022   1.935   0.619
12463SOL    HW142236   3.995   2.019   0.656
12463SOL    HW242237   4.065   1.889   0.691
12464SOL     OW42238   5.322   2.220   0.362
12464SOL    HW142239   5.370   2.157   0.415
12464SOL    HW242240   5.234   2.222   0.401
12465SOL     OW42241   4.765   2.598   0.935
12465SOL    HW142242   4.756   2.609   1.030
12465SOL    HW242243   4.739   2.507   0.919
12466SOL     OW42244   4.713   3.412   1.754
12466SOL    HW142245   4.691   3.460   1.674
12466SOL    HW242246   4.756   3.332   1.723
12467SOL     OW42247   5.579   3.360   1.618
12467SOL    HW142248   5.606   3.385   1.529
12467SOL    HW242249   5.659   3.366   1.670
12468SOL     OW42250   4.091   2.807   1.828
12468SOL    HW142251   4.179   2.832   1.856
12468SOL    HW242252   4.105   2.741   1.760
12469SOL     OW42253   5.190   2.170   0.120
12469SOL    HW142254   5.141   2.089   0.133
12469SOL    HW242255   5.249   2.175   0.194
12470SOL     OW42256   5.105   2.702   0.045
12470SOL    HW142257   5.108   2.606   0.043
12470SOL    HW242258   5.186   2.729   0.003
12471SOL     OW42259   4.777   3.223   0.838
12471SOL    HW142260   4.769   3.146   0.782
12471SOL    HW242261   4.815   3.290   0.781
12472SOL     OW42262   4.039   2.666   0.891
12472SOL    HW142263   4.115   2.670   0.833
12472SOL    HW242264   4.044   2.579   0.931
12473SOL     OW42265   4.062   2.385   0.943
12473SOL    HW142266   3.996   2.322   0.971
12473SOL    HW242267   4.085   2.359   0.854
12474SOL     OW42268   4.857   2.312   1.635
12474SOL    HW142269   4.833   2.345   1.722
12474SOL    HW242270   4.952   2.322   1.632
12475SOL     OW42271   4.848   2.072   1.496
12475SOL    HW142272   4.839   2.150   1.552
12475SOL    HW242273   4.898   2.102   1.421
12476SOL     OW42274   3.761   3.172   0.182
12476SOL    HW142275   3.677   3.207   0.154
12476SOL    HW242276   3.739   3.097   0.237
12477SOL     OW42277   3.824   3.618   0.965
12477SOL    HW142278   3.797   3.537   0.923
12477SOL    HW242279   3.906   3.641   0.922
12478SOL     OW42280   4.238   3.482   0.899
12478SOL    HW142281   4.288   3.465   0.979
12478SOL    HW242282   4.267   3.415   0.837
12479SOL     OW42283   4.665   2.644   1.199
12479SOL    HW142284   4.706   2.608   1.278
12479SOL    HW242285   4.592   2.584   1.181
12480SOL     OW42286   3.664   2.314   1.116
12480SOL    HW142287   3.737   2.282   1.062
12480SOL    HW242288   3.705   2.347   1.195
12481SOL     OW42289   3.893   2.438   1.722
12481SOL    HW142290   3.945   2.359   1.736
12481SOL    HW242291   3.806   2.416   1.756
12482SOL     OW42292   5.134   2.785   1.646
12482SOL    HW142293   5.141   2.879   1.631
12482SOL    HW242294   5.117   2.748   1.559
12483SOL     OW42295   5.333   2.474   1.215
12483SOL    HW142296   5.277   2.453   1.140
12483SOL    HW242297   5.406   2.413   1.209
12484SOL     OW42298   3.943   3.405   1.754
12484SOL    HW142299   3.893   3.427   1.832
12484SOL    HW242300   3.967   3.313   1.766
12485SOL     OW42301   4.399   2.292   1.190
12485SOL    HW142302   4.370   2.202   1.198
12485SOL    HW242303   4.495   2.287   1.184
12486SOL     OW42304   4.623   3.536   1.517
12486SOL    HW142305   4.627   3.474   1.444
12486SOL    HW242306   4.613   3.622   1.476
12487SOL     OW42307   4.110   2.362   0.224
12487SOL    HW142308   4.199   2.382   0.253
12487SOL    HW242309   4.075   2.303   0.291
12488SOL     OW42310   3.911   3.000   1.442
12488SOL    HW142311   3.890   2.962   1.528
12488SOL    HW242312   3.938   2.925   1.389
12489SOL     OW42313   5.023   2.895   1.188
12489SOL    HW142314   5.055   2.835   1.121
12489SOL    HW242315   4.957   2.948   1.143
12490SOL     OW42316   5.086   2.668   0.322
12490SOL    HW142317   5.026   2.594   0.332
12490SOL    HW242318   5.093   2.680   0.227
12491SOL     OW42319   5.522   3.600   1.187
12491SOL    HW142320   5.573   3.630   1.112
12491SOL    HW242321   5.478   3.521   1.156
12492SOL     OW42322   4.988   3.591   1.114
12492SOL    HW142323   5.064   3.608   1.057
12492SOL    HW242324   4.974   3.497   1.107
12493SOL     OW42325   3.832   3.148   0.992
12493SOL    HW142326   3.804   3.153   1.083
12493SOL    HW242327   3.772   3.085   0.952
12494SOL     OW42328   4.425   3.529   1.717
12494SOL    HW142329   4.359   3.564   1.657
12494SOL    HW242330   4.507   3.536   1.669
12495SOL     OW42331   4.630   1.948   0.160
12495SOL    HW142332   4.596   1.930   0.072
12495SOL    HW242333   4.701   1.885   0.171
12496SOL     OW42334   5.480   2.039   0.504
12496SOL    HW142335   5.546   2.015   0.439
12496SOL    HW242336   5.439   1.956   0.528
12497SOL     OW42337   5.100   3.428   0.540
12497SOL    HW142338   5.167   3.456   0.478
12497SOL    HW242339   5.043   3.503   0.550
12498SOL     OW42340   3.795   3.686   1.825
12498SOL    HW142341   3.764   3.600   1.856
12498SOL    HW242342   3.864   3.709   1.887
12499SOL     OW42343   4.957   2.820   0.640
12499SOL    HW142344   5.023   2.763   0.679
12499SOL    HW242345   5.006   2.872   0.576
12500SOL     OW42346   4.529   3.128   1.412
12500SOL    HW142347   4.493   3.162   1.494
12500SOL    HW242348   4.458   3.138   1.349
12501SOL     OW42349   4.454   3.485   0.195
12501SOL    HW142350   4.518   3.448   0.134
12501SOL    HW242351   4.379   3.427   0.189
12502SOL     OW42352   5.318   3.585   1.389
12502SOL    HW142353   5.394   3.582   1.331
12502SOL    HW242354   5.274   3.666   1.367
12503SOL     OW42355   5.568   2.040   0.942
12503SOL    HW142356   5.583   1.949   0.915
12503SOL    HW242357   5.480   2.060   0.910
12504SOL     OW42358   3.933   2.185   0.725
12504SOL    HW142359   3.848   2.222   0.700
12504SOL    HW242360   3.921   2.156   0.815
12505SOL     OW42361   4.925   3.422   0.034
12505SOL    HW142362   4.916   3.330   0.060
12505SOL    HW242363   4.991   3.421   9.965
12506SOL     OW42364   4.534   2.838   1.376
12506SOL    HW142365   4.581   2.806   1.299
12506SOL    HW242366   4.545   2.933   1.372
12507SOL     OW42367   4.692   2.766   0.310
12507SOL    HW142368   4.765   2.772   0.248
12507SOL    HW242369   4.687   2.674   0.334
12508SOL     OW42370   5.273   3.576   0.107
12508SOL    HW142371   5.249   3.490   0.073
12508SOL    HW242372   5.367   3.571   0.121
12509SOL     OW42373   4.072   3.215   1.510
12509SOL    HW142374   4.058   3.279   1.440
12509SOL    HW242375   4.021   3.139   1.483
12510SOL     OW42376   5.310   3.117   1.271
12510SOL    HW142377   5.399   3.149   1.284
12510SOL    HW242378   5.255   3.186   1.309
12511SOL     OW42379   4.747   2.991   0.704
12511SOL    HW142380   4.659   2.962   0.682
12511SOL    HW242381   4.805   2.922   0.670
12512SOL     OW42382   4.768   2.102   0.966
12512SOL    HW142383   4.764   2.060   0.880
12512SOL    HW242384   4.752   2.031   1.028
12513SOL     OW42385   4.347   3.342   0.470
12513SOL    HW142386   4.427   3.297   0.443
12513SOL    HW242387   4.285   3.325   0.399
12514SOL     OW42388   3.983   3.212   0.348
12514SOL    HW142389   3.908   3.200   0.290
12514SOL    HW242390   3.947   3.257   0.424
12515SOL     OW42391   3.858   2.917   1.709
12515SOL    HW142392   3.784   2.882   1.759
12515SOL    HW242393   3.933   2.868   1.742
12516SOL     OW42394   4.404   2.108   1.500
12516SOL    HW142395   4.475   2.092   1.437
12516SOL    HW242396   4.375   2.021   1.525
12517SOL     OW42397   3.741   2.237   9.906
12517SOL    HW142398   3.666   2.181   9.886
12517SOL    HW242399   3.808   2.177   9.938
12518SOL     OW42400   5.137   2.723   1.379
12518SOL    HW142401   5.083   2.776   1.322
12518SOL    HW242402   5.224   2.726   1.339
12519SOL     OW42403   3.869   2.001   0.361
12519SOL    HW142404   3.923   2.079   0.376
12519SOL    HW242405   3.927   1.928   0.382
12520SOL     OW42406   4.826   3.153   0.159
12520SOL    HW142407   4.845   3.062   0.135
12520SOL    HW242408   4.880   3.169   0.236
12521SOL     OW42409   4.332   2.644   1.415
12521SOL    HW142410   4.390   2.720   1.404
12521SOL    HW242411   4.391   2.571   1.433
12522SOL     OW42412   5.230   3.626   0.963
12522SOL    HW142413   5.249   3.635   0.870
12522SOL    HW242414   5.282   3.550   0.991
12523SOL     OW42415   4.445   2.372   1.735
12523SOL    HW142416   4.353   2.352   1.716
12523SOL    HW242417   4.480   2.292   1.772
12524SOL     OW42418   5.176   3.057   1.611
12524SOL    HW142419   5.158   3.073   1.703
12524SOL    HW242420   5.270   3.076   1.601
12525SOL     OW42421   4.073   3.614   1.627
12525SOL    HW142422   3.993   3.652   1.591
12525SOL    HW242423   4.044   3.533   1.668
12526SOL     OW42424   5.387   2.734   1.251
12526SOL    HW142425   5.377   2.638   1.248
12526SOL    HW242426   5.402   2.759   1.160
12527SOL     OW42427   5.054   2.230   0.452
12527SOL    HW142428   5.055   2.134   0.451
12527SOL    HW242429   5.032   2.253   0.542
12528SOL     OW42430   4.244   2.665   0.711
12528SOL    HW142431   4.301   2.588   0.718
12528SOL    HW242432   4.197   2.652   0.629
12529SOL     OW42433   5.504   2.225   1.650
12529SOL    HW142434   5.588   2.195   1.614
12529SOL    HW242435   5.439   2.168   1.609
12530SOL     OW42436   5.495   2.819   1.487
12530SOL    HW142437   5.461   2.908   1.489
12530SOL    HW242438   5.469   2.785   1.402
12531SOL     OW42439   4.617   3.308   0.049
12531SOL    HW142440   4.538   3.255   0.041
12531SOL    HW242441   4.684   3.247   0.081
12532SOL     OW42442   4.437   3.720   1.004
12532SOL    HW142443   4.394   3.719   0.918
12532SOL    HW242444   4.513   3.662   0.993
12533SOL     OW42445   4.563   2.794   0.914
12533SOL    HW142446   4.647   2.749   0.917
12533SOL    HW242447   4.572   2.865   0.978
12534SOL     OW42448   4.899   2.891   0.076
12534SOL    HW142449   4.841   2.857   0.008
12534SOL    HW242450   4.974   2.831   0.075
12535SOL     OW42451   5.578   3.413   0.816
12535SOL    HW142452   5.616   3.438   0.732
12535SOL    HW242453   5.610   3.325   0.832
12536SOL     OW42454   3.927   3.142   1.848
12536SOL    HW142455   3.901   3.067   1.795
12536SOL    HW242456   3.864   3.143   1.921
12537SOL     OW42457   3.847   3.053   0.648
12537SOL    HW142458   3.814   3.006   0.724
12537SOL    HW242459   3.922   3.002   0.618
12538SOL     OW42460   4.422   3.249   1.645
12538SOL    HW142461   4.333   3.228   1.673
12538SOL    HW242462   4.433   3.341   1.666
12539SOL     OW42463   5.572   2.002   1.212
12539SOL    HW142464   5.648   1.952   1.241
12539SOL    HW242465   5.577   2.000   1.117
12540SOL     OW42466   4.022   2.226   0.459
12540SOL    HW142467   4.108   2.263   0.477
12540SOL    HW242468   3.986   2.203   0.545
12541SOL     OW42469   5.427   3.374   1.062
12541SOL    HW142470   5.479   3.373   0.982
12541SOL    HW242471   5.464   3.303   1.115
12542SOL     OW42472   4.076   2.335   1.303
12542SOL    HW142473   4.123   2.325   1.386
12542SOL    HW242474   4.068   2.246   1.269
12543SOL     OW42475   4.518   3.502   0.695
12543SOL    HW142476   4.547   3.512   0.604
12543SOL    HW242477   4.463   3.424   0.694
12544SOL     OW42478   5.181   2.087   1.205
12544SOL    HW142479   5.153   2.004   1.168
12544SOL    HW242480   5.100   2.133   1.228
12545SOL     OW42481   4.717   1.879   1.119
12545SOL    HW142482   4.660   1.823   1.066
12545SOL    HW242483   4.800   1.833   1.122
12546SOL     OW42484   4.552   3.188   0.370
12546SOL    HW142485   4.522   3.098   0.382
12546SOL    HW242486   4.601   3.186   0.288
12547SOL     OW42487   4.328   3.441   1.289
12547SOL    HW142488   4.329   3.511   1.355
12547SOL    HW242489   4.418   3.436   1.258
12548SOL     OW42490   5.059   1.928   0.170
12548SOL    HW142491   5.069   1.903   0.078
12548SOL    HW242492   4.979   1.885   0.198
12549SOL     OW42493   5.035   2.384   0.706
12549SOL    HW142494   4.955   2.432   0.684
12549SOL    HW242495   5.012   2.333   0.783
12550SOL     OW42496   5.290   2.069   0.865
12550SOL    HW142497   5.266   1.980   0.892
12550SOL    HW242498   5.294   2.065   0.769
12551SOL     OW42499   3.741   2.959   0.359
12551SOL    HW142500   3.818   2.959   0.416
12551SOL    HW242501   3.718   2.866   0.350
12552SOL     OW42502   4.606   3.550   0.425
12552SOL    HW142503   4.554   3.530   0.347
12552SOL    HW242504   4.590   3.643   0.441
12553SOL     OW42505   3.969   2.523   1.985
12553SOL    HW142506   3.889   2.538   2.035
12553SOL    HW242507   3.940   2.513   1.894
12554SOL     OW42508   4.018   2.096   2.821
12554SOL    HW142509   4.097   2.045   2.839
12554SOL    HW242510   3.946   2.040   2.848
12555SOL     OW42511   3.715   2.280   2.497
12555SOL    HW142512   3.633   2.299   2.541
12555SOL    HW242513   3.696   2.203   2.444
12556SOL     OW42514   4.334   3.176   3.037
12556SOL    HW142515   4.254   3.136   3.005
12556SOL    HW242516   4.309   3.264   3.063
12557SOL     OW42517   5.319   3.436   2.571
12557SOL    HW142518   5.269   3.395   2.642
12557SOL    HW242519   5.279   3.401   2.491
12558SOL     OW42520   4.870   2.529   2.548
12558SOL    HW142521   4.887   2.614   2.587
12558SOL    HW242522   4.808   2.486   2.607
12559SOL     OW42523   5.370   2.495   2.080
12559SOL    HW142524   5.396   2.469   1.992
12559SOL    HW242525   5.374   2.414   2.131
12560SOL     OW42526   4.551   3.123   2.872
12560SOL    HW142527   4.474   3.134   2.928
12560SOL    HW242528   4.544   3.034   2.838
12561SOL     OW42529   4.638   2.610   3.679
12561SOL    HW142530   4.569   2.544   3.666
12561SOL    HW242531   4.649   2.650   3.593
12562SOL     OW42532   4.433   3.006   2.553
12562SOL    HW142533   4.482   2.946   2.610
12562SOL    HW242534   4.342   2.978   2.561
12563SOL     OW42535   4.472   3.060   3.672
12563SOL    HW142536   4.418   3.104   3.606
12563SOL    HW242537   4.413   2.997   3.713
12564SOL     OW42538   4.069   3.268   2.925
12564SOL    HW142539   3.987   3.239   2.886
12564SOL    HW242540   4.105   3.331   2.862
12565SOL     OW42541   5.147   3.389   3.224
12565SOL    HW142542   5.205   3.464   3.238
12565SOL    HW242543   5.081   3.397   3.292
12566SOL     OW42544   4.217   2.306   3.441
12566SOL    HW142545   4.283   2.239   3.421
12566SOL    HW242546   4.133   2.260   3.432
12567SOL     OW42547   5.349   2.307   2.626
12567SOL    HW142548   5.259   2.313   2.593
12567SOL    HW242549   5.346   2.235   2.690
12568SOL     OW42550   3.938   3.603   2.309
12568SOL    HW142551   3.968   3.669   2.372
12568SOL    HW242552   4.013   3.588   2.252
12569SOL     OW42553   4.887   3.207   3.583
12569SOL    HW142554   4.915   3.199   3.674
12569SOL    HW242555   4.838   3.127   3.565
12570SOL     OW42556   3.973   3.289   2.445
12570SOL    HW142557   3.912   3.362   2.461
12570SOL    HW242558   3.925   3.211   2.473
12571SOL     OW42559   4.033   2.870   2.799
12571SOL    HW142560   4.028   2.774   2.791
12571SOL    HW242561   3.957   2.893   2.852
12572SOL     OW42562   4.274   3.676   3.263
12572SOL    HW142563   4.202   3.650   3.320
12572SOL    HW242564   4.301   3.762   3.295
12573SOL     OW42565   4.349   2.847   1.944
12573SOL    HW142566   4.402   2.768   1.935
12573SOL    HW242567   4.362   2.875   2.035
12574SOL     OW42568   5.346   2.054   3.312
12574SOL    HW142569   5.353   1.968   3.270
12574SOL    HW242570   5.289   2.038   3.387
12575SOL     OW42571   3.840   2.516   2.427
12575SOL    HW142572   3.805   2.427   2.435
12575SOL    HW242573   3.816   2.559   2.509
12576SOL     OW42574   5.572   3.607   2.176
12576SOL    HW142575   5.648   3.594   2.233
12576SOL    HW242576   5.581   3.696   2.142
12577SOL     OW42577   3.774   3.440   1.966
12577SOL    HW142578   3.748   3.350   1.985
12577SOL    HW242579   3.744   3.490   2.042
12578SOL     OW42580   5.444   2.800   2.558
12578SOL    HW142581   5.526   2.751   2.558
12578SOL    HW242582   5.425   2.816   2.466
12579SOL     OW42583   5.376   2.970   2.313
12579SOL    HW142584   5.442   2.944   2.249
12579SOL    HW242585   5.416   3.042   2.362
12580SOL     OW42586   3.846   2.592   3.428
12580SOL    HW142587   3.936   2.621   3.435
12580SOL    HW242588   3.797   2.671   3.405
12581SOL     OW42589   4.216   3.244   2.573
12581SOL    HW142590   4.201   3.152   2.597
12581SOL    HW242591   4.136   3.271   2.530
12582SOL     OW42592   4.995   3.098   3.264
12582SOL    HW142593   5.021   3.038   3.194
12582SOL    HW242594   5.035   3.063   3.343
12583SOL     OW42595   4.561   1.902   2.341
12583SOL    HW142596   4.610   1.873   2.418
12583SOL    HW242597   4.469   1.899   2.369
12584SOL     OW42598   3.930   2.787   3.145
12584SOL    HW142599   4.021   2.763   3.126
12584SOL    HW242600   3.881   2.705   3.134
12585SOL     OW42601   4.906   3.682   3.506
12585SOL    HW142602   4.902   3.736   3.427
12585SOL    HW242603   4.918   3.593   3.474
12586SOL     OW42604   4.032   2.110   3.709
12586SOL    HW142605   4.048   2.180   3.646
12586SOL    HW242606   3.938   2.114   3.726
12587SOL     OW42607   5.164   3.307   2.763
12587SOL    HW142608   5.105   3.305   2.839
12587SOL    HW242609   5.152   3.222   2.721
12588SOL     OW42610   5.385   3.646   2.392
12588SOL    HW142611   5.454   3.610   2.336
12588SOL    HW242612   5.382   3.587   2.467
12589SOL     OW42613   4.275   2.586   2.140
12589SOL    HW142614   4.224   2.632   2.074
12589SOL    HW242615   4.214   2.571   2.212
12590SOL     OW42616   5.011   2.255   2.812
12590SOL    HW142617   4.920   2.229   2.814
12590SOL    HW242618   5.057   2.188   2.862
12591SOL     OW42619   5.314   3.521   2.115
12591SOL    HW142620   5.409   3.535   2.111
12591SOL    HW242621   5.287   3.519   2.023
12592SOL     OW42622   4.534   2.471   3.353
12592SOL    HW142623   4.515   2.428   3.436
12592SOL    HW242624   4.505   2.408   3.287
12593SOL     OW42625   5.113   2.295   3.532
12593SOL    HW142626   5.132   2.317   3.623
12593SOL    HW242627   5.143   2.204   3.522
12594SOL     OW42628   4.697   2.751   3.447
12594SOL    HW142629   4.744   2.682   3.399
12594SOL    HW242630   4.634   2.785   3.384
12595SOL     OW42631   4.725   2.294   3.087
12595SOL    HW142632   4.635   2.289   3.120
12595SOL    HW242633   4.723   2.245   3.004
12596SOL     OW42634   4.762   2.577   2.297
12596SOL    HW142635   4.789   2.553   2.385
12596SOL    HW242636   4.677   2.536   2.285
12597SOL     OW42637   3.774   2.615   2.678
12597SOL    HW142638   3.865   2.616   2.708
12597SOL    HW242639   3.729   2.559   2.742
12598SOL     OW42640   3.867   3.739   3.430
12598SOL    HW142641   3.833   3.727   3.519
12598SOL    HW242642   3.827   3.670   3.379
12599SOL     OW42643   4.525   2.228   2.116
12599SOL    HW142644   4.540   2.203   2.025
12599SOL    HW242645   4.453   2.173   2.145
12600SOL     OW42646   5.441   2.468   3.713
12600SOL    HW142647   5.408   2.529   3.647
12600SOL    HW242648   5.446   2.384   3.667
12601SOL     OW42649   5.101   2.941   2.350
12601SOL    HW142650   5.195   2.948   2.334
12601SOL    HW242651   5.072   2.869   2.294
12602SOL     OW42652   4.751   3.319   2.341
12602SOL    HW142653   4.717   3.401   2.306
12602SOL    HW242654   4.686   3.254   2.316
12603SOL     OW42655   4.077   3.699   2.734
12603SOL    HW142656   4.111   3.610   2.746
12603SOL    HW242657   4.150   3.756   2.758
12604SOL     OW42658   5.483   2.999   2.752
12604SOL    HW142659   5.472   2.926   2.690
12604SOL    HW242660   5.423   2.979   2.823
12605SOL     OW42661   4.935   3.415   3.404
12605SOL    HW142662   4.942   3.345   3.469
12605SOL    HW242663   4.873   3.381   3.339
12606SOL     OW42664   4.010   2.801   2.099
12606SOL    HW142665   4.030   2.801   2.005
12606SOL    HW242666   3.962   2.720   2.113
12607SOL     OW42667   5.209   2.630   2.601
12607SOL    HW142668   5.203   2.571   2.677
12607SOL    HW242669   5.296   2.669   2.608
12608SOL     OW42670   4.176   3.152   3.620
12608SOL    HW142671   4.148   3.163   3.529
12608SOL    HW242672   4.097   3.123   3.666
12609SOL     OW42673   4.868   3.606   2.143
12609SOL    HW142674   4.777   3.586   2.165
12609SOL    HW242675   4.886   3.554   2.064
12610SOL     OW42676   3.974   2.162   3.422
12610SOL    HW142677   3.990   2.144   3.329
12610SOL    HW242678   3.926   2.085   3.453
12611SOL     OW42679   5.355   3.225   1.921
12611SOL    HW142680   5.361   3.258   1.832
12611SOL    HW242681   5.281   3.163   1.919
12612SOL     OW42682   4.177   3.614   2.161
12612SOL    HW142683   4.231   3.660   2.226
12612SOL    HW242684   4.240   3.565   2.108
12613SOL     OW42685   5.137   1.946   2.307
12613SOL    HW142686   5.131   1.919   2.216
12613SOL    HW242687   5.217   1.906   2.339
12614SOL     OW42688   4.001   3.657   3.055
12614SOL    HW142689   4.021   3.573   3.096
12614SOL    HW242690   3.940   3.636   2.984
12615SOL     OW42691   4.663   3.552   2.712
12615SOL    HW142692   4.755   3.536   2.690
12615SOL    HW242693   4.618   3.472   2.687
12616SOL     OW42694   4.107   2.532   2.351
12616SOL    HW142695   4.132   2.441   2.367
12616SOL    HW242696   4.014   2.536   2.372
12617SOL     OW42697   5.203   2.034   3.553
12617SOL    HW142698   5.215   2.032   3.648
12617SOL    HW242699   5.144   1.961   3.535
12618SOL     OW42700   4.357   1.951   1.977
12618SOL    HW142701   4.380   1.860   1.994
12618SOL    HW242702   4.296   1.947   1.903
12619SOL     OW42703   4.520   2.144   3.654
12619SOL    HW142704   4.596   2.086   3.650
12619SOL    HW242705   4.466   2.119   3.579
12620SOL     OW42706   4.601   3.415   3.101
12620SOL    HW142707   4.592   3.376   3.015
12620SOL    HW242708   4.669   3.363   3.145
12621SOL     OW42709   5.067   2.448   3.308
12621SOL    HW142710   5.081   2.392   3.385
12621SOL    HW242711   5.155   2.467   3.277
12622SOL     OW42712   4.564   3.283   2.631
12622SOL    HW142713   4.658   3.267   2.621
12622SOL    HW242714   4.539   3.232   2.708
12623SOL     OW42715   4.692   2.403   2.735
12623SOL    HW142716   4.648   2.382   2.652
12623SOL    HW242717   4.715   2.318   2.772
12624SOL     OW42718   4.288   1.903   2.392
12624SOL    HW142719   4.218   1.893   2.457
12624SOL    HW242720   4.258   1.973   2.335
12625SOL     OW42721   5.131   3.058   1.890
12625SOL    HW142722   5.124   2.965   1.907
12625SOL    HW242723   5.055   3.097   1.932
12626SOL     OW42724   4.017   1.908   2.013
12626SOL    HW142725   4.080   1.912   1.941
12626SOL    HW242726   4.058   1.851   2.078
12627SOL     OW42727   4.691   2.152   2.327
12627SOL    HW142728   4.653   2.172   2.242
12627SOL    HW242729   4.668   2.061   2.344
12628SOL     OW42730   4.800   2.551   3.290
12628SOL    HW142731   4.730   2.489   3.312
12628SOL    HW242732   4.880   2.499   3.290
12629SOL     OW42733   4.921   3.486   2.618
12629SOL    HW142734   4.890   3.396   2.608
12629SOL    HW242735   5.002   3.478   2.669
12630SOL     OW42736   4.164   2.977   2.579
12630SOL    HW142737   4.107   2.936   2.644
12630SOL    HW242738   4.122   2.958   2.495
12631SOL     OW42739   4.988   3.646   2.396
12631SOL    HW142740   4.918   3.639   2.331
12631SOL    HW242741   4.954   3.600   2.473
12632SOL     OW42742   4.833   2.438   1.889
12632SOL    HW142743   4.756   2.491   1.871
12632SOL    HW242744   4.825   2.414   1.981
12633SOL     OW42745   3.866   2.504   3.151
12633SOL    HW142746   3.954   2.465   3.157
12633SOL    HW242747   3.830   2.495   3.239
12634SOL     OW42748   4.255   2.150   3.075
12634SOL    HW142749   4.271   2.086   3.006
12634SOL    HW242750   4.170   2.125   3.111
12635SOL     OW42751   4.606   2.360   2.482
12635SOL    HW142752   4.555   2.392   2.408
12635SOL    HW242753   4.642   2.277   2.452
12636SOL     OW42754   4.728   1.839   2.553
12636SOL    HW142755   4.691   1.904   2.613
12636SOL    HW242756   4.697   1.755   2.586
12637SOL     OW42757   5.121   3.063   2.634
12637SOL    HW142758   5.093   2.981   2.675
12637SOL    HW242759   5.128   3.043   2.541
12638SOL     OW42760   5.157   2.493   2.843
12638SOL    HW142761   5.109   2.411   2.834
12638SOL    HW242762   5.225   2.473   2.908
12639SOL     OW42763   5.525   2.668   2.239
12639SOL    HW142764   5.583   2.610   2.287
12639SOL    HW242765   5.467   2.610   2.190
12640SOL     OW42766   4.230   3.292   2.019
12640SOL    HW142767   4.149   3.263   2.059
12640SOL    HW242768   4.227   3.257   1.930
12641SOL     OW42769   5.493   3.153   2.492
12641SOL    HW142770   5.582   3.118   2.499
12641SOL    HW242771   5.450   3.125   2.573
12642SOL     OW42772   5.113   2.400   1.922
12642SOL    HW142773   5.020   2.381   1.909
12642SOL    HW242774   5.153   2.315   1.938
12643SOL     OW42775   4.265   2.114   2.185
12643SOL    HW142776   4.287   2.046   2.122
12643SOL    HW242777   4.213   2.177   2.134
12644SOL     OW42778   5.473   3.153   3.374
12644SOL    HW142779   5.554   3.103   3.361
12644SOL    HW242780   5.501   3.231   3.422
12645SOL     OW42781   4.772   3.255   3.243
12645SOL    HW142782   4.695   3.199   3.250
12645SOL    HW242783   4.846   3.194   3.249
12646SOL     OW42784   5.329   3.515   3.542
12646SOL    HW142785   5.316   3.543   3.451
12646SOL    HW242786   5.410   3.464   3.540
12647SOL     OW42787   4.828   3.096   2.925
12647SOL    HW142788   4.734   3.110   2.940
12647SOL    HW242789   4.832   3.036   2.850
12648SOL     OW42790   5.312   2.970   2.975
12648SOL    HW142791   5.330   3.049   3.026
12648SOL    HW242792   5.217   2.958   2.982
12649SOL     OW42793   4.583   1.976   3.227
12649SOL    HW142794   4.571   1.965   3.133
12649SOL    HW242795   4.677   1.989   3.238
12650SOL     OW42796   4.725   2.986   3.586
12650SOL    HW142797   4.634   3.009   3.605
12650SOL    HW242798   4.718   2.910   3.528
12651SOL     OW42799   4.432   2.918   2.208
12651SOL    HW142800   4.384   2.866   2.272
12651SOL    HW242801   4.515   2.873   2.197
12652SOL     OW42802   4.190   2.687   3.109
12652SOL    HW142803   4.243   2.694   3.189
12652SOL    HW242804   4.164   2.595   3.105
12653SOL     OW42805   4.974   2.217   3.169
12653SOL    HW142806   5.006   2.298   3.209
12653SOL    HW242807   4.887   2.239   3.138
12654SOL     OW42808   3.820   3.502   3.282
12654SOL    HW142809   3.762   3.522   3.209
12654SOL    HW242810   3.894   3.456   3.242
12655SOL     OW42811   4.091   2.967   2.308
12655SOL    HW142812   4.071   3.047   2.259
12655SOL    HW242813   4.073   2.896   2.247
12656SOL     OW42814   4.310   2.405   2.710
12656SOL    HW142815   4.323   2.467   2.638
12656SOL    HW242816   4.318   2.319   2.669
12657SOL     OW42817   4.991   3.198   2.269
12657SOL    HW142818   5.007   3.110   2.304
12657SOL    HW242819   4.909   3.226   2.310
12658SOL     OW42820   5.003   3.316   2.990
12658SOL    HW142821   5.047   3.321   3.075
12658SOL    HW242822   4.946   3.239   2.997
12659SOL     OW42823   5.210   2.525   2.337
12659SOL    HW142824   5.200   2.551   2.428
12659SOL    HW242825   5.258   2.443   2.340
12660SOL     OW42826   4.053   3.399   3.164
12660SOL    HW142827   4.033   3.341   3.091
12660SOL    HW242828   4.148   3.410   3.161
12661SOL     OW42829   4.131   2.597   3.486
12661SOL    HW142830   4.201   2.632   3.431
12661SOL    HW242831   4.138   2.502   3.476
12662SOL     OW42832   5.350   2.655   3.527
12662SOL    HW142833   5.268   2.661   3.477
12662SOL    HW242834   5.418   2.676   3.463
12663SOL     OW42835   4.728   1.977   3.609
12663SOL    HW142836   4.771   1.987   3.524
12663SOL    HW242837   4.711   1.883   3.616
12664SOL     OW42838   4.222   1.947   3.588
12664SOL    HW142839   4.181   1.869   3.550
12664SOL    HW242840   4.150   1.999   3.621
12665SOL     OW42841   4.297   2.844   2.899
12665SOL    HW142842   4.214   2.865   2.855
12665SOL    HW242843   4.272   2.786   2.971
12666SOL     OW42844   5.012   2.722   2.894
12666SOL    HW142845   4.925   2.700   2.861
12666SOL    HW242846   5.064   2.644   2.877
12667SOL     OW42847   4.949   2.415   2.166
12667SOL    HW142848   4.980   2.334   2.205
12667SOL    HW242849   4.876   2.442   2.220
12668SOL     OW42850   4.010   2.069   3.170
12668SOL    HW142851   3.919   2.073   3.140
12668SOL    HW242852   4.036   1.978   3.158
12669SOL     OW42853   3.799   3.193   3.118
12669SOL    HW142854   3.828   3.128   3.181
12669SOL    HW242855   3.706   3.207   3.138
12670SOL     OW42856   4.488   2.480   2.912
12670SOL    HW142857   4.560   2.444   2.859
12670SOL    HW242858   4.410   2.467   2.858
12671SOL     OW42859   5.425   2.857   3.698
12671SOL    HW142860   5.404   2.778   3.648
12671SOL    HW242861   5.377   2.846   3.780
12672SOL     OW42862   4.073   1.885   2.574
12672SOL    HW142863   4.028   1.967   2.590
12672SOL    HW242864   4.084   1.846   2.660
12673SOL     OW42865   5.336   2.283   2.251
12673SOL    HW142866   5.393   2.214   2.284
12673SOL    HW242867   5.247   2.246   2.258
12674SOL     OW42868   4.747   2.661   2.821
12674SOL    HW142869   4.719   2.664   2.912
12674SOL    HW242870   4.729   2.571   2.793
12675SOL     OW42871   4.696   3.415   3.605
12675SOL    HW142872   4.660   3.460   3.528
12675SOL    HW242873   4.747   3.342   3.568
12676SOL     OW42874   5.571   3.385   3.488
12676SOL    HW142875   5.601   3.415   3.402
12676SOL    HW242876   5.648   3.390   3.544
12677SOL     OW42877   4.092   2.776   3.703
12677SOL    HW142878   4.181   2.806   3.721
12677SOL    HW242879   4.103   2.708   3.637
12678SOL     OW42880   5.220   2.156   1.975
12678SOL    HW142881   5.171   2.079   2.002
12678SOL    HW242882   5.310   2.140   2.005
12679SOL     OW42883   5.089   2.670   1.892
12679SOL    HW142884   5.093   2.576   1.876
12679SOL    HW242885   5.107   2.710   1.807
12680SOL     OW42886   4.834   3.230   2.671
12680SOL    HW142887   4.837   3.140   2.640
12680SOL    HW242888   4.847   3.224   2.766
12681SOL     OW42889   4.040   2.598   2.765
12681SOL    HW142890   4.107   2.575   2.701
12681SOL    HW242891   4.036   2.523   2.824
12682SOL     OW42892   4.097   2.356   2.888
12682SOL    HW142893   4.061   2.268   2.875
12682SOL    HW242894   4.176   2.358   2.834
12683SOL     OW42895   4.840   2.302   3.494
12683SOL    HW142896   4.804   2.311   3.582
12683SOL    HW242897   4.934   2.289   3.508
12684SOL     OW42898   4.851   2.052   3.364
12684SOL    HW142899   4.827   2.136   3.403
12684SOL    HW242900   4.897   2.075   3.283
12685SOL     OW42901   3.750   3.160   2.060
12685SOL    HW142902   3.661   3.181   2.031
12685SOL    HW242903   3.741   3.077   2.106
12686SOL     OW42904   3.823   3.639   2.833
12686SOL    HW142905   3.786   3.568   2.781
12686SOL    HW242906   3.904   3.663   2.788
12687SOL     OW42907   4.197   3.451   2.757
12687SOL    HW142908   4.278   3.502   2.765
12687SOL    HW242909   4.217   3.383   2.693
12688SOL     OW42910   4.639   2.658   3.074
12688SOL    HW142911   4.690   2.612   3.141
12688SOL    HW242912   4.577   2.593   3.042
12689SOL     OW42913   3.744   2.445   2.905
12689SOL    HW142914   3.753   2.353   2.882
12689SOL    HW242915   3.797   2.455   2.984
12690SOL     OW42916   3.893   2.368   3.585
12690SOL    HW142917   3.908   2.300   3.520
12690SOL    HW242918   3.861   2.443   3.535
12691SOL     OW42919   5.096   2.880   3.578
12691SOL    HW142920   5.157   2.953   3.572
12691SOL    HW242921   5.107   2.832   3.496
12692SOL     OW42922   4.507   2.470   2.246
12692SOL    HW142923   4.518   2.387   2.199
12692SOL    HW242924   4.435   2.514   2.201
12693SOL     OW42925   5.361   2.479   3.041
12693SOL    HW142926   5.361   2.419   3.115
12693SOL    HW242927   5.445   2.463   2.997
12694SOL     OW42928   3.977   3.410   3.623
12694SOL    HW142929   3.918   3.437   3.694
12694SOL    HW242930   3.984   3.315   3.633
12695SOL     OW42931   4.454   2.322   3.140
12695SOL    HW142932   4.393   2.249   3.126
12695SOL    HW242933   4.450   2.373   3.059
12696SOL     OW42934   4.588   3.545   3.360
12696SOL    HW142935   4.591   3.492   3.280
12696SOL    HW242936   4.603   3.635   3.329
12697SOL     OW42937   4.160   2.331   2.036
12697SOL    HW142938   4.234   2.389   2.058
12697SOL    HW242939   4.086   2.390   2.027
12698SOL     OW42940   3.894   3.006   3.312
12698SOL    HW142941   3.874   2.965   3.396
12698SOL    HW242942   3.901   2.933   3.251
12699SOL     OW42943   5.040   2.949   3.035
12699SOL    HW142944   5.033   2.862   2.996
12699SOL    HW242945   4.964   2.997   3.003
12700SOL     OW42946   4.995   2.726   2.200
12700SOL    HW142947   4.926   2.674   2.241
12700SOL    HW242948   4.952   2.767   2.124
12701SOL     OW42949   5.535   3.591   3.041
12701SOL    HW142950   5.597   3.605   2.970
12701SOL    HW242951   5.474   3.526   3.008
12702SOL     OW42952   4.958   3.595   2.977
12702SOL    HW142953   5.047   3.623   2.958
12702SOL    HW242954   4.963   3.500   2.985
12703SOL     OW42955   3.807   3.205   2.841
12703SOL    HW142956   3.797   3.199   2.936
12703SOL    HW242957   3.762   3.127   2.807
12704SOL     OW42958   4.378   3.520   3.538
12704SOL    HW142959   4.296   3.547   3.497
12704SOL    HW242960   4.445   3.538   3.472
12705SOL     OW42961   5.494   2.077   2.344
12705SOL    HW142962   5.555   2.048   2.276
12705SOL    HW242963   5.453   1.996   2.376
12706SOL     OW42964   5.185   3.386   2.328
12706SOL    HW142965   5.244   3.367   2.254
12706SOL    HW242966   5.114   3.322   2.318
12707SOL     OW42967   3.817   3.706   3.700
12707SOL    HW142968   3.781   3.619   3.718
12707SOL    HW242969   3.880   3.721   3.771
12708SOL     OW42970   4.996   2.797   2.571
12708SOL    HW142971   5.065   2.733   2.587
12708SOL    HW242972   5.018   2.836   2.486
12709SOL     OW42973   4.523   3.134   3.238
12709SOL    HW142974   4.483   3.167   3.318
12709SOL    HW242975   4.455   3.143   3.171
12710SOL     OW42976   4.394   3.518   1.999
12710SOL    HW142977   4.414   3.525   1.905
12710SOL    HW242978   4.349   3.434   2.007
12711SOL     OW42979   5.327   3.600   3.268
12711SOL    HW142980   5.395   3.597   3.200
12711SOL    HW242981   5.308   3.693   3.277
12712SOL     OW42982   5.562   1.975   2.938
12712SOL    HW142983   5.600   1.922   2.867
12712SOL    HW242984   5.484   2.015   2.899
12713SOL     OW42985   3.984   2.199   2.567
12713SOL    HW142986   3.892   2.220   2.552
12713SOL    HW242987   3.988   2.172   2.658
12714SOL     OW42988   4.930   3.463   1.917
12714SOL    HW142989   4.937   3.371   1.940
12714SOL    HW242990   4.858   3.467   1.854
12715SOL     OW42991   4.542   2.855   3.251
12715SOL    HW142992   4.571   2.811   3.171
12715SOL    HW242993   4.541   2.948   3.228
12716SOL     OW42994   4.675   2.808   2.167
12716SOL    HW142995   4.733   2.815   2.091
12716SOL    HW242996   4.701   2.727   2.210
12717SOL     OW42997   5.183   3.578   1.875
12717SOL    HW142998   5.098   3.535   1.864
12717SOL    HW242999   5.233   3.552   1.798
12718SOL     OW43000   4.089   3.199   3.367
12718SOL    HW143001   4.068   3.269   3.305
12718SOL    HW243002   4.028   3.129   3.345
12719SOL     OW43003   5.327   3.199   3.138
12719SOL    HW143004   5.379   3.175   3.215
12719SOL    HW243005   5.254   3.249   3.174
12720SOL     OW43006   4.806   2.953   2.693
12720SOL    HW143007   4.724   2.904   2.704
12720SOL    HW243008   4.866   2.890   2.653
12721SOL     OW43009   4.756   2.157   2.847
12721SOL    HW143010   4.692   2.110   2.794
12721SOL    HW243011   4.789   2.092   2.909
12722SOL     OW43012   4.283   3.321   2.293
12722SOL    HW143013   4.286   3.303   2.199
12722SOL    HW243014   4.190   3.332   2.312
12723SOL     OW43015   5.410   2.316   3.263
12723SOL    HW143016   5.505   2.314   3.251
12723SOL    HW243017   5.384   2.223   3.264
12724SOL     OW43018   4.007   3.215   2.178
12724SOL    HW143019   3.923   3.202   2.134
12724SOL    HW243020   3.984   3.244   2.266
12725SOL     OW43021   3.866   2.903   3.580
12725SOL    HW143022   3.784   2.867   3.613
12725SOL    HW243023   3.934   2.848   3.620
12726SOL     OW43024   4.394   2.090   3.412
12726SOL    HW143025   4.450   2.051   3.345
12726SOL    HW243026   4.342   2.017   3.444
12727SOL     OW43027   3.773   2.150   1.884
12727SOL    HW143028   3.764   2.059   1.855
12727SOL    HW243029   3.693   2.193   1.852
12728SOL     OW43030   5.149   2.748   3.337
12728SOL    HW143031   5.073   2.704   3.299
12728SOL    HW243032   5.212   2.752   3.266
12729SOL     OW43033   3.790   2.015   2.130
12729SOL    HW143034   3.779   2.076   2.058
12729SOL    HW243035   3.875   1.974   2.115
12730SOL     OW43036   4.913   3.197   1.999
12730SOL    HW143037   4.818   3.193   2.004
12730SOL    HW243038   4.942   3.195   2.090
12731SOL     OW43039   4.350   2.678   3.336
12731SOL    HW143040   4.409   2.750   3.314
12731SOL    HW243041   4.408   2.602   3.341
12732SOL     OW43042   5.222   3.664   2.912
12732SOL    HW143043   5.265   3.688   2.830
12732SOL    HW243044   5.264   3.581   2.938
12733SOL     OW43045   4.454   2.407   3.615
12733SOL    HW143046   4.486   2.319   3.638
12733SOL    HW243047   4.363   2.393   3.591
12734SOL     OW43048   5.301   3.066   3.572
12734SOL    HW143049   5.354   2.997   3.611
12734SOL    HW243050   5.351   3.094   3.495
12735SOL     OW43051   4.104   3.604   3.474
12735SOL    HW143052   4.024   3.647   3.443
12735SOL    HW243053   4.073   3.527   3.522
12736SOL     OW43054   5.344   2.738   3.137
12736SOL    HW143055   5.345   2.654   3.092
12736SOL    HW243056   5.339   2.803   3.066
12737SOL     OW43057   5.074   2.213   2.304
12737SOL    HW143058   5.077   2.118   2.305
12737SOL    HW243059   5.067   2.238   2.397
12738SOL     OW43060   4.337   2.582   2.497
12738SOL    HW143061   4.399   2.543   2.435
12738SOL    HW243062   4.253   2.579   2.451
12739SOL     OW43063   5.438   2.237   3.554
12739SOL    HW143064   5.427   2.269   3.465
12739SOL    HW243065   5.385   2.157   3.558
12740SOL     OW43066   5.526   2.760   3.341
12740SOL    HW143067   5.563   2.847   3.327
12740SOL    HW243068   5.467   2.746   3.267
12741SOL     OW43069   4.635   3.239   1.983
12741SOL    HW143070   4.589   3.170   1.937
12741SOL    HW243071   4.641   3.311   1.920
12742SOL     OW43072   4.397   3.639   2.764
12742SOL    HW143073   4.379   3.732   2.754
12742SOL    HW243074   4.490   3.630   2.743
12743SOL     OW43075   4.542   2.858   2.772
12743SOL    HW143076   4.589   2.776   2.785
12743SOL    HW243077   4.456   2.843   2.812
12744SOL     OW43078   4.876   2.829   1.971
12744SOL    HW143079   4.831   2.870   1.898
12744SOL    HW243080   4.936   2.766   1.930
12745SOL     OW43081   5.583   3.431   2.690
12745SOL    HW143082   5.500   3.417   2.645
12745SOL    HW243083   5.604   3.346   2.730
12746SOL     OW43084   3.911   3.147   3.691
12746SOL    HW143085   3.890   3.066   3.644
12746SOL    HW243086   3.846   3.152   3.760
12747SOL     OW43087   3.830   3.063   2.516
12747SOL    HW143088   3.797   3.034   2.601
12747SOL    HW243089   3.818   2.986   2.459
12748SOL     OW43090   4.400   3.248   3.459
12748SOL    HW143091   4.307   3.226   3.457
12748SOL    HW243092   4.403   3.336   3.497
12749SOL     OW43093   4.195   2.283   2.409
12749SOL    HW143094   4.222   2.214   2.348
12749SOL    HW243095   4.126   2.243   2.462
12750SOL     OW43096   5.346   3.411   2.953
12750SOL    HW143097   5.299   3.373   2.879
12750SOL    HW243098   5.352   3.339   3.016
12751SOL     OW43099   4.130   2.420   3.154
12751SOL    HW143100   4.182   2.358   3.206
12751SOL    HW243101   4.125   2.380   3.068
12752SOL     OW43102   5.115   2.066   2.984
12752SOL    HW143103   5.082   1.977   2.981
12752SOL    HW243104   5.069   2.107   3.058
12753SOL     OW43105   4.813   1.951   3.020
12753SOL    HW143106   4.725   1.931   2.987
12753SOL    HW243107   4.861   1.869   3.012
12754SOL     OW43108   4.543   3.166   2.246
12754SOL    HW143109   4.508   3.079   2.231
12754SOL    HW243110   4.567   3.198   2.159
12755SOL     OW43111   4.326   3.437   3.143
12755SOL    HW143112   4.312   3.525   3.176
12755SOL    HW243113   4.421   3.430   3.130
12756SOL     OW43114   5.100   1.920   2.030
12756SOL    HW143115   5.140   1.846   1.985
12756SOL    HW243116   5.009   1.895   2.042
12757SOL     OW43117   5.074   2.332   2.556
12757SOL    HW143118   5.010   2.401   2.540
12757SOL    HW243119   5.048   2.294   2.640
12758SOL     OW43120   5.334   2.098   2.815
12758SOL    HW143121   5.266   2.103   2.882
12758SOL    HW243122   5.322   2.012   2.775
12759SOL     OW43123   3.768   2.909   2.188
12759SOL    HW143124   3.858   2.898   2.158
12759SOL    HW243125   3.734   2.820   2.197
12760SOL     OW43126   4.614   3.538   2.221
12760SOL    HW143127   4.543   3.524   2.159
12760SOL    HW243128   4.585   3.612   2.275
12761SOL     OW43129   3.936   2.469   3.838
12761SOL    HW143130   3.844   2.485   3.860
12761SOL    HW243131   3.933   2.439   3.747
12762SOL     OW43132   3.989   2.117   4.708
12762SOL    HW143133   4.077   2.087   4.686
12762SOL    HW243134   3.934   2.085   4.637
12763SOL     OW43135   3.707   2.287   4.345
12763SOL    HW143136   3.622   2.311   4.382
12763SOL    HW243137   3.690   2.207   4.296
12764SOL     OW43138   4.325   3.166   4.926
12764SOL    HW143139   4.245   3.152   4.876
12764SOL    HW243140   4.328   3.261   4.940
12765SOL     OW43141   5.317   3.368   4.438
12765SOL    HW143142   5.257   3.338   4.506
12765SOL    HW243143   5.262   3.374   4.359
12766SOL     OW43144   4.841   2.580   4.415
12766SOL    HW143145   4.890   2.659   4.395
12766SOL    HW243146   4.804   2.596   4.502
12767SOL     OW43147   5.432   2.477   3.985
12767SOL    HW143148   5.434   2.482   3.889
12767SOL    HW243149   5.417   2.384   4.003
12768SOL     OW43150   4.548   3.047   4.793
12768SOL    HW143151   4.469   3.035   4.845
12768SOL    HW243152   4.539   3.135   4.755
12769SOL     OW43153   4.632   2.725   5.586
12769SOL    HW143154   4.651   2.635   5.611
12769SOL    HW243155   4.634   2.724   5.490
12770SOL     OW43156   4.418   2.844   4.374
12770SOL    HW143157   4.485   2.848   4.442
12770SOL    HW243158   4.358   2.915   4.395
12771SOL     OW43159   4.412   3.007   5.594
12771SOL    HW143160   4.355   3.065   5.543
12771SOL    HW243161   4.351   2.947   5.638
12772SOL     OW43162   4.095   3.236   4.772
12772SOL    HW143163   4.023   3.183   4.736
12772SOL    HW243164   4.114   3.300   4.704
12773SOL     OW43165   5.151   3.387   5.090
12773SOL    HW143166   5.211   3.460   5.105
12773SOL    HW243167   5.082   3.399   5.156
12774SOL     OW43168   4.176   2.316   5.274
12774SOL    HW143169   4.258   2.267   5.268
12774SOL    HW243170   4.110   2.250   5.294
12775SOL     OW43171   5.272   2.265   4.448
12775SOL    HW143172   5.177   2.269   4.437
12775SOL    HW243173   5.306   2.321   4.378
12776SOL     OW43174   3.945   3.587   4.179
12776SOL    HW143175   3.978   3.659   4.232
12776SOL    HW243176   4.008   3.578   4.108
12777SOL     OW43177   4.872   3.206   5.424
12777SOL    HW143178   4.945   3.167   5.473
12777SOL    HW243179   4.807   3.136   5.420
12778SOL     OW43180   3.990   3.320   4.258
12778SOL    HW143181   3.953   3.408   4.251
12778SOL    HW243182   3.928   3.273   4.315
12779SOL     OW43183   4.088   2.931   4.624
12779SOL    HW143184   4.068   2.837   4.627
12779SOL    HW243185   4.012   2.972   4.664
12780SOL     OW43186   4.268   3.671   5.105
12780SOL    HW143187   4.204   3.623   5.159
12780SOL    HW243188   4.311   3.730   5.167
12781SOL     OW43189   4.351   2.859   3.836
12781SOL    HW143190   4.401   2.777   3.838
12781SOL    HW243191   4.363   2.896   3.923
12782SOL     OW43192   5.347   1.977   5.224
12782SOL    HW143193   5.271   2.001   5.276
12782SOL    HW243194   5.385   1.902   5.271
12783SOL     OW43195   3.855   2.518   4.290
12783SOL    HW143196   3.806   2.437   4.301
12783SOL    HW243197   3.833   2.570   4.367
12784SOL     OW43198   5.582   3.610   4.041
12784SOL    HW143199   5.655   3.601   4.103
12784SOL    HW243200   5.592   3.698   4.005
12785SOL     OW43201   3.794   3.450   3.828
12785SOL    HW143202   3.770   3.359   3.843
12785SOL    HW243203   3.755   3.498   3.901
12786SOL     OW43204   5.438   2.765   4.399
12786SOL    HW143205   5.516   2.729   4.442
12786SOL    HW243206   5.456   2.757   4.305
12787SOL     OW43207   5.363   2.990   4.108
12787SOL    HW143208   5.443   2.956   4.068
12787SOL    HW243209   5.394   3.046   4.179
12788SOL     OW43210   3.848   2.573   5.196
12788SOL    HW143211   3.922   2.593   5.252
12788SOL    HW243212   3.775   2.622   5.234
12789SOL     OW43213   4.360   3.290   4.441
12789SOL    HW143214   4.327   3.201   4.447
12789SOL    HW243215   4.330   3.322   4.356
12790SOL     OW43216   4.995   3.083   5.142
12790SOL    HW143217   5.006   3.014   5.077
12790SOL    HW243218   5.058   3.062   5.211
12791SOL     OW43219   4.563   1.863   4.274
12791SOL    HW143220   4.596   1.817   4.197
12791SOL    HW243221   4.525   1.794   4.329
12792SOL     OW43222   3.928   2.788   5.023
12792SOL    HW143223   4.013   2.757   4.993
12792SOL    HW243224   3.882   2.709   5.051
12793SOL     OW43225   5.220   2.844   3.914
12793SOL    HW143226   5.187   2.776   3.973
12793SOL    HW243227   5.262   2.907   3.972
12794SOL     OW43228   4.884   3.682   5.351
12794SOL    HW143229   4.884   3.739   5.274
12794SOL    HW243230   4.903   3.595   5.317
12795SOL     OW43231   3.973   2.108   5.576
12795SOL    HW143232   4.000   2.058   5.653
12795SOL    HW243233   3.972   2.044   5.505
12796SOL     OW43234   5.139   3.291   4.637
12796SOL    HW143235   5.089   3.298   4.718
12796SOL    HW243236   5.134   3.198   4.613
12797SOL     OW43237   5.329   3.704   4.259
12797SOL    HW143238   5.324   3.649   4.182
12797SOL    HW243239   5.364   3.647   4.328
12798SOL     OW43240   4.281   2.601   4.009
12798SOL    HW143241   4.226   2.668   3.968
12798SOL    HW243242   4.235   2.578   4.090
12799SOL     OW43243   5.008   2.262   4.680
12799SOL    HW143244   4.931   2.207   4.697
12799SOL    HW243245   5.082   2.201   4.683
12800SOL     OW43246   5.308   3.541   4.040
12800SOL    HW143247   5.403   3.544   4.029
12800SOL    HW243248   5.274   3.534   3.951
12801SOL     OW43249   4.499   2.427   5.235
12801SOL    HW143250   4.482   2.400   5.326
12801SOL    HW243251   4.482   2.348   5.184
12802SOL     OW43252   5.153   2.363   5.360
12802SOL    HW143253   5.063   2.369   5.391
12802SOL    HW243254   5.179   2.272   5.377
12803SOL     OW43255   4.692   2.763   5.320
12803SOL    HW143256   4.735   2.683   5.291
12803SOL    HW243257   4.636   2.787   5.246
12804SOL     OW43258   4.773   2.220   4.939
12804SOL    HW143259   4.685   2.245   4.966
12804SOL    HW243260   4.761   2.182   4.852
12805SOL     OW43261   4.775   2.585   4.140
12805SOL    HW143262   4.781   2.572   4.235
12805SOL    HW243263   4.690   2.547   4.117
12806SOL     OW43264   3.804   2.690   4.509
12806SOL    HW143265   3.894   2.674   4.538
12806SOL    HW243266   3.766   2.745   4.577
12807SOL     OW43267   3.836   3.790   5.307
12807SOL    HW143268   3.826   3.746   5.391
12807SOL    HW243269   3.764   3.757   5.253
12808SOL     OW43270   4.604   2.249   3.899
12808SOL    HW143271   4.675   2.281   3.843
12808SOL    HW243272   4.549   2.196   3.841
12809SOL     OW43273   5.517   2.462   5.472
12809SOL    HW143274   5.612   2.468   5.482
12809SOL    HW243275   5.500   2.369   5.460
12810SOL     OW43276   5.127   3.021   4.268
12810SOL    HW143277   5.207   3.007   4.217
12810SOL    HW243278   5.075   3.083   4.216
12811SOL     OW43279   4.257   2.066   4.658
12811SOL    HW143280   4.290   2.066   4.748
12811SOL    HW243281   4.282   2.152   4.624
12812SOL     OW43282   4.711   3.235   4.265
12812SOL    HW143283   4.644   3.222   4.199
12812SOL    HW243284   4.724   3.149   4.304
12813SOL     OW43285   4.081   3.705   4.594
12813SOL    HW143286   4.114   3.616   4.601
12813SOL    HW243287   4.157   3.760   4.613
12814SOL     OW43288   5.513   2.969   4.606
12814SOL    HW143289   5.473   2.921   4.533
12814SOL    HW243290   5.454   2.954   4.680
12815SOL     OW43291   4.923   3.418   5.250
12815SOL    HW143292   4.928   3.351   5.318
12815SOL    HW243293   4.866   3.379   5.183
12816SOL     OW43294   4.012   2.794   3.974
12816SOL    HW143295   4.031   2.788   3.880
12816SOL    HW243296   3.947   2.726   3.991
12817SOL     OW43297   5.196   2.638   4.437
12817SOL    HW143298   5.196   2.586   4.517
12817SOL    HW243299   5.282   2.681   4.437
12818SOL     OW43300   4.196   3.176   5.484
12818SOL    HW143301   4.170   3.191   5.393
12818SOL    HW243302   4.117   3.140   5.526
12819SOL     OW43303   4.841   3.656   3.947
12819SOL    HW143304   4.755   3.625   3.977
12819SOL    HW243305   4.868   3.592   3.882
12820SOL     OW43306   3.923   2.164   5.253
12820SOL    HW143307   3.839   2.150   5.209
12820SOL    HW243308   3.940   2.081   5.298
12821SOL     OW43309   5.366   3.238   3.785
12821SOL    HW143310   5.311   3.316   3.776
12821SOL    HW243311   5.335   3.179   3.716
12822SOL     OW43312   4.176   3.574   4.019
12822SOL    HW143313   4.208   3.514   4.085
12822SOL    HW243314   4.219   3.546   3.938
12823SOL     OW43315   5.124   1.977   4.191
12823SOL    HW143316   5.121   1.947   4.100
12823SOL    HW243317   5.208   1.945   4.224
12824SOL     OW43318   4.002   3.642   4.906
12824SOL    HW143319   4.028   3.555   4.935
12824SOL    HW243320   3.942   3.626   4.833
12825SOL     OW43321   4.680   3.558   4.641
12825SOL    HW143322   4.766   3.523   4.620
12825SOL    HW243323   4.625   3.481   4.655
12826SOL     OW43324   4.129   2.521   4.226
12826SOL    HW143325   4.150   2.428   4.224
12826SOL    HW243326   4.034   2.525   4.236
12827SOL     OW43327   5.166   2.076   5.415
12827SOL    HW143328   5.181   2.093   5.507
12827SOL    HW243329   5.107   2.001   5.414
12828SOL     OW43330   4.316   1.898   3.843
12828SOL    HW143331   4.345   1.807   3.844
12828SOL    HW243332   4.302   1.918   3.750
12829SOL     OW43333   4.565   2.104   5.573
12829SOL    HW143334   4.631   2.035   5.569
12829SOL    HW243335   4.482   2.058   5.586
12830SOL     OW43336   4.607   3.406   4.940
12830SOL    HW143337   4.599   3.367   4.852
12830SOL    HW243338   4.674   3.353   4.983
12831SOL     OW43339   5.053   2.359   5.100
12831SOL    HW143340   5.095   2.363   5.186
12831SOL    HW243341   5.043   2.451   5.074
12832SOL     OW43342   4.552   3.307   4.667
12832SOL    HW143343   4.630   3.267   4.628
12832SOL    HW243344   4.484   3.296   4.600
12833SOL     OW43345   4.670   2.371   4.619
12833SOL    HW143346   4.652   2.352   4.527
12833SOL    HW243347   4.696   2.287   4.657
12834SOL     OW43348   4.257   1.928   4.225
12834SOL    HW143349   4.181   1.931   4.283
12834SOL    HW243350   4.242   1.850   4.171
12835SOL     OW43351   4.033   1.928   3.913
12835SOL    HW143352   4.052   1.994   3.847
12835SOL    HW243353   4.117   1.884   3.927
12836SOL     OW43354   4.651   2.152   4.150
12836SOL    HW143355   4.643   2.187   4.062
12836SOL    HW243356   4.745   2.149   4.167
12837SOL     OW43357   4.755   2.520   5.204
12837SOL    HW143358   4.668   2.481   5.213
12837SOL    HW243359   4.813   2.463   5.254
12838SOL     OW43360   4.923   3.453   4.531
12838SOL    HW143361   4.953   3.519   4.469
12838SOL    HW243362   5.003   3.413   4.564
12839SOL     OW43363   4.231   3.046   4.418
12839SOL    HW143364   4.177   3.009   4.488
12839SOL    HW243365   4.184   3.026   4.338
12840SOL     OW43366   5.011   3.679   4.382
12840SOL    HW143367   5.020   3.736   4.305
12840SOL    HW243368   5.082   3.706   4.440
12841SOL     OW43369   4.793   2.388   3.756
12841SOL    HW143370   4.748   2.472   3.743
12841SOL    HW243371   4.844   2.401   3.836
12842SOL     OW43372   3.844   2.367   5.017
12842SOL    HW143373   3.934   2.376   4.985
12842SOL    HW243374   3.836   2.435   5.084
12843SOL     OW43375   4.323   2.070   4.925
12843SOL    HW143376   4.318   1.978   4.949
12843SOL    HW243377   4.247   2.110   4.967
12844SOL     OW43378   4.761   1.934   4.461
12844SOL    HW143379   4.704   1.934   4.384
12844SOL    HW243380   4.731   1.860   4.513
12845SOL     OW43381   5.117   3.025   4.563
12845SOL    HW143382   5.079   2.940   4.585
12845SOL    HW243383   5.132   3.021   4.468
12846SOL     OW43384   5.163   2.509   4.692
12846SOL    HW143385   5.114   2.426   4.691
12846SOL    HW243386   5.237   2.493   4.751
12847SOL     OW43387   5.528   2.680   4.140
12847SOL    HW143388   5.593   2.630   4.191
12847SOL    HW243389   5.494   2.617   4.076
12848SOL     OW43390   4.233   3.290   3.858
12848SOL    HW143391   4.158   3.258   3.909
12848SOL    HW243392   4.228   3.243   3.775
12849SOL     OW43393   5.462   3.135   4.315
12849SOL    HW143394   5.548   3.108   4.348
12849SOL    HW243395   5.433   3.202   4.376
12850SOL     OW43396   5.121   2.356   3.805
12850SOL    HW143397   5.059   2.354   3.878
12850SOL    HW243398   5.172   2.275   3.815
12851SOL     OW43399   4.323   2.128   3.997
12851SOL    HW143400   4.315   2.057   3.934
12851SOL    HW243401   4.273   2.200   3.960
12852SOL     OW43402   5.441   3.124   5.238
12852SOL    HW143403   5.520   3.072   5.226
12852SOL    HW243404   5.471   3.202   5.285
12853SOL     OW43405   4.770   3.243   5.098
12853SOL    HW143406   4.692   3.189   5.111
12853SOL    HW243407   4.843   3.183   5.112
12854SOL     OW43408   5.320   3.498   5.401
12854SOL    HW143409   5.312   3.534   5.312
12854SOL    HW243410   5.397   3.442   5.397
12855SOL     OW43411   4.825   3.088   4.825
12855SOL    HW143412   4.735   3.058   4.836
12855SOL    HW243413   4.827   3.126   4.737
12856SOL     OW43414   5.328   2.956   4.820
12856SOL    HW143415   5.330   3.031   4.879
12856SOL    HW243416   5.241   2.958   4.781
12857SOL     OW43417   4.625   1.992   5.114
12857SOL    HW143418   4.651   1.985   5.023
12857SOL    HW243419   4.604   1.902   5.140
12858SOL     OW43420   4.671   3.015   5.436
12858SOL    HW143421   4.590   3.047   5.397
12858SOL    HW243422   4.689   2.932   5.391
12859SOL     OW43423   4.456   2.953   4.100
12859SOL    HW143424   4.427   2.908   4.180
12859SOL    HW243425   4.539   2.910   4.078
12860SOL     OW43426   4.176   2.671   4.973
12860SOL    HW143427   4.232   2.677   5.050
12860SOL    HW243428   4.151   2.579   4.968
12861SOL     OW43429   3.841   3.474   5.122
12861SOL    HW143430   3.777   3.501   5.056
12861SOL    HW243431   3.902   3.418   5.074
12862SOL     OW43432   4.111   2.986   4.171
12862SOL    HW143433   4.087   3.055   4.109
12862SOL    HW243434   4.090   2.905   4.125
12863SOL     OW43435   4.296   2.344   4.598
12863SOL    HW143436   4.297   2.405   4.524
12863SOL    HW243437   4.349   2.387   4.665
12864SOL     OW43438   4.968   3.221   4.144
12864SOL    HW143439   5.022   3.294   4.175
12864SOL    HW243440   4.884   3.234   4.189
12865SOL     OW43441   4.996   3.320   4.869
12865SOL    HW143442   5.047   3.329   4.950
12865SOL    HW243443   4.938   3.245   4.885
12866SOL     OW43444   5.298   2.445   4.241
12866SOL    HW143445   5.255   2.518   4.286
12866SOL    HW243446   5.341   2.485   4.166
12867SOL     OW43447   4.073   3.382   4.999
12867SOL    HW143448   4.058   3.320   4.928
12867SOL    HW243449   4.167   3.400   4.996
12868SOL     OW43450   4.111   2.590   5.315
12868SOL    HW143451   4.189   2.622   5.272
12868SOL    HW243452   4.125   2.495   5.324
12869SOL     OW43453   4.722   1.886   5.608
12869SOL    HW143454   4.806   1.841   5.600
12869SOL    HW243455   4.662   1.818   5.637
12870SOL     OW43456   4.238   1.989   5.372
12870SOL    HW143457   4.285   1.906   5.367
12870SOL    HW243458   4.145   1.964   5.368
12871SOL     OW43459   4.344   2.744   4.766
12871SOL    HW143460   4.287   2.787   4.702
12871SOL    HW243461   4.285   2.722   4.839
12872SOL     OW43462   5.016   2.744   4.707
12872SOL    HW143463   4.928   2.708   4.692
12872SOL    HW243464   5.074   2.668   4.701
12873SOL     OW43465   4.929   2.394   4.005
12873SOL    HW143466   4.936   2.313   4.056
12873SOL    HW243467   4.869   2.449   4.055
12874SOL     OW43468   4.072   2.140   5.022
12874SOL    HW143469   4.029   2.162   5.105
12874SOL    HW243470   4.076   2.045   5.022
12875SOL     OW43471   3.808   3.182   4.968
12875SOL    HW143472   3.847   3.127   5.036
12875SOL    HW243473   3.716   3.187   4.991
12876SOL     OW43474   4.455   2.486   4.774
12876SOL    HW143475   4.530   2.476   4.716
12876SOL    HW243476   4.428   2.577   4.763
12877SOL     OW43477   5.486   2.855   5.551
12877SOL    HW143478   5.437   2.803   5.488
12877SOL    HW243479   5.430   2.858   5.629
12878SOL     OW43480   4.025   1.923   4.372
12878SOL    HW143481   3.993   2.011   4.388
12878SOL    HW243482   4.036   1.884   4.459
12879SOL     OW43483   5.351   2.223   4.068
12879SOL    HW143484   5.410   2.163   4.114
12879SOL    HW243485   5.307   2.271   4.138
12880SOL     OW43486   4.753   2.626   4.689
12880SOL    HW143487   4.733   2.635   4.782
12880SOL    HW243488   4.736   2.533   4.670
12881SOL     OW43489   4.697   3.416   5.471
12881SOL    HW143490   4.683   3.471   5.394
12881SOL    HW243491   4.748   3.342   5.438
12882SOL     OW43492   5.558   3.363   5.336
12882SOL    HW143493   5.591   3.390   5.251
12882SOL    HW243494   5.635   3.365   5.394
12883SOL     OW43495   4.023   2.787   5.486
12883SOL    HW143496   3.999   2.732   5.561
12883SOL    HW243497   4.064   2.727   5.424
12884SOL     OW43498   5.239   2.111   3.836
12884SOL    HW143499   5.191   2.035   3.868
12884SOL    HW243500   5.294   2.139   3.910
12885SOL     OW43501   5.027   2.572   3.668
12885SOL    HW143502   5.069   2.498   3.711
12885SOL    HW243503   4.978   2.533   3.595
12886SOL     OW43504   4.789   3.210   4.578
12886SOL    HW143505   4.797   3.142   4.512
12886SOL    HW243506   4.839   3.284   4.543
12887SOL     OW43507   4.061   2.655   4.611
12887SOL    HW143508   4.136   2.637   4.554
12887SOL    HW243509   4.043   2.572   4.654
12888SOL     OW43510   4.039   2.390   4.682
12888SOL    HW143511   4.001   2.308   4.714
12888SOL    HW243512   4.130   2.368   4.661
12889SOL     OW43513   4.876   2.353   5.395
12889SOL    HW143514   4.830   2.383   5.474
12889SOL    HW243515   4.851   2.261   5.387
12890SOL     OW43516   4.870   2.055   5.237
12890SOL    HW143517   4.903   1.985   5.293
12890SOL    HW243518   4.780   2.029   5.216
12891SOL     OW43519   3.745   3.179   3.909
12891SOL    HW143520   3.653   3.200   3.890
12891SOL    HW243521   3.741   3.093   3.952
12892SOL     OW43522   3.826   3.622   4.687
12892SOL    HW143523   3.788   3.545   4.644
12892SOL    HW243524   3.903   3.642   4.634
12893SOL     OW43525   4.206   3.454   4.612
12893SOL    HW143526   4.279   3.511   4.637
12893SOL    HW243527   4.244   3.392   4.550
12894SOL     OW43528   4.666   2.615   4.952
12894SOL    HW143529   4.713   2.587   5.031
12894SOL    HW243530   4.594   2.552   4.944
12895SOL     OW43531   3.971   2.377   5.515
12895SOL    HW143532   3.978   2.285   5.539
12895SOL    HW243533   3.941   2.376   5.424
12896SOL     OW43534   5.171   2.722   5.371
12896SOL    HW143535   5.187   2.816   5.366
12896SOL    HW243536   5.130   2.699   5.288
12897SOL     OW43537   4.542   2.482   4.047
12897SOL    HW143538   4.546   2.399   3.999
12897SOL    HW243539   4.454   2.515   4.031
12898SOL     OW43540   5.375   2.474   4.878
12898SOL    HW143541   5.374   2.419   4.956
12898SOL    HW243542   5.459   2.454   4.836
12899SOL     OW43543   3.978   3.414   5.475
12899SOL    HW143544   3.928   3.434   5.554
12899SOL    HW243545   3.994   3.320   5.480
12900SOL     OW43546   4.507   2.285   4.963
12900SOL    HW143547   4.451   2.208   4.963
12900SOL    HW243548   4.465   2.345   4.902
12901SOL     OW43549   4.578   3.550   5.237
12901SOL    HW143550   4.586   3.492   5.162
12901SOL    HW243551   4.590   3.638   5.200
12902SOL     OW43552   4.172   2.349   3.932
12902SOL    HW143553   4.218   2.433   3.942
12902SOL    HW243554   4.085   2.373   3.901
12903SOL     OW43555   3.908   3.019   5.168
12903SOL    HW143556   3.871   2.986   5.250
12903SOL    HW243557   3.918   2.940   5.113
12904SOL     OW43558   4.999   2.899   4.932
12904SOL    HW143559   5.014   2.839   4.858
12904SOL    HW243560   4.938   2.964   4.899
12905SOL     OW43561   5.015   2.664   3.987
12905SOL    HW143562   4.943   2.675   4.048
12905SOL    HW243563   5.026   2.569   3.979
12906SOL     OW43564   5.524   3.587   4.909
12906SOL    HW143565   5.580   3.604   4.833
12906SOL    HW243566   5.465   3.518   4.881
12907SOL     OW43567   4.965   3.603   4.844
12907SOL    HW143568   5.053   3.623   4.813
12907SOL    HW243569   4.964   3.508   4.855
12908SOL     OW43570   3.864   3.081   4.712
12908SOL    HW143571   3.841   3.115   4.799
12908SOL    HW243572   3.787   3.030   4.686
12909SOL     OW43573   4.399   3.543   5.457
12909SOL    HW143574   4.321   3.524   5.405
12909SOL    HW243575   4.470   3.548   5.394
12910SOL     OW43576   5.515   2.061   4.219
12910SOL    HW143577   5.575   2.037   4.149
12910SOL    HW243578   5.471   1.980   4.243
12911SOL     OW43579   5.131   3.436   4.232
12911SOL    HW143580   5.189   3.459   4.158
12911SOL    HW243581   5.084   3.517   4.250
12912SOL     OW43582   3.869   3.692   5.564
12912SOL    HW143583   3.828   3.607   5.583
12912SOL    HW243584   3.897   3.724   5.650
12913SOL     OW43585   4.991   2.808   4.373
12913SOL    HW143586   5.061   2.747   4.397
12913SOL    HW243587   5.036   2.878   4.325
12914SOL     OW43588   4.518   3.121   5.125
12914SOL    HW143589   4.487   3.161   5.206
12914SOL    HW243590   4.446   3.132   5.063
12915SOL     OW43591   4.370   3.520   3.812
12915SOL    HW143592   4.384   3.524   3.718
12915SOL    HW243593   4.330   3.434   3.826
12916SOL     OW43594   5.329   3.599   5.135
12916SOL    HW143595   5.397   3.596   5.067
12916SOL    HW243596   5.309   3.692   5.144
12917SOL     OW43597   5.558   2.020   4.750
12917SOL    HW143598   5.599   1.939   4.721
12917SOL    HW243599   5.469   2.017   4.714
12918SOL     OW43600   3.960   2.190   4.419
12918SOL    HW143601   3.874   2.218   4.386
12918SOL    HW243602   3.984   2.257   4.483
12919SOL     OW43603   4.926   3.470   3.766
12919SOL    HW143604   4.924   3.380   3.800
12919SOL    HW243605   4.859   3.472   3.698
12920SOL     OW43606   4.542   2.838   5.107
12920SOL    HW143607   4.576   2.803   5.025
12920SOL    HW243608   4.538   2.933   5.094
12921SOL     OW43609   4.692   2.832   4.035
12921SOL    HW143610   4.733   2.829   3.948
12921SOL    HW243611   4.714   2.748   4.075
12922SOL     OW43612   5.196   3.543   3.783
12922SOL    HW143613   5.107   3.512   3.764
12922SOL    HW243614   5.242   3.538   3.699
12923SOL     OW43615   4.089   3.218   5.235
12923SOL    HW143616   4.084   3.276   5.160
12923SOL    HW243617   4.032   3.144   5.213
12924SOL     OW43618   5.315   3.185   4.993
12924SOL    HW143619   5.365   3.153   5.068
12924SOL    HW243620   5.247   3.240   5.031
12925SOL     OW43621   4.776   2.998   4.404
12925SOL    HW143622   4.712   2.949   4.456
12925SOL    HW243623   4.843   2.935   4.381
12926SOL     OW43624   4.766   2.098   4.688
12926SOL    HW143625   4.771   2.058   4.601
12926SOL    HW243626   4.749   2.024   4.747
12927SOL     OW43627   4.260   3.365   4.192
12927SOL    HW143628   4.296   3.301   4.131
12927SOL    HW243629   4.171   3.334   4.210
12928SOL     OW43630   5.466   2.331   5.115
12928SOL    HW143631   5.549   2.378   5.109
12928SOL    HW243632   5.486   2.245   5.077
12929SOL     OW43633   4.016   3.203   4.011
12929SOL    HW143634   3.932   3.197   3.967
12929SOL    HW243635   3.996   3.243   4.096
12930SOL     OW43636   3.810   2.942   5.422
12930SOL    HW143637   3.739   2.897   5.469
12930SOL    HW243638   3.887   2.888   5.439
12931SOL     OW43639   4.407   2.151   5.229
12931SOL    HW143640   4.477   2.100   5.189
12931SOL    HW243641   4.355   2.088   5.278
12932SOL     OW43642   3.765   2.172   3.751
12932SOL    HW143643   3.691   2.147   3.696
12932SOL    HW243644   3.794   2.256   3.715
12933SOL     OW43645   5.106   2.685   5.105
12933SOL    HW143646   5.052   2.748   5.058
12933SOL    HW243647   5.194   2.696   5.067
12934SOL     OW43648   3.781   2.013   3.989
12934SOL    HW143649   3.763   2.066   3.912
12934SOL    HW243650   3.872   1.984   3.978
12935SOL     OW43651   4.895   3.216   3.866
12935SOL    HW143652   4.801   3.203   3.869
12935SOL    HW243653   4.925   3.199   3.956
12936SOL     OW43654   4.348   2.655   5.188
12936SOL    HW143655   4.414   2.722   5.169
12936SOL    HW243656   4.399   2.575   5.204
12937SOL     OW43657   5.221   3.661   4.754
12937SOL    HW143658   5.277   3.711   4.695
12937SOL    HW243659   5.272   3.582   4.774
12938SOL     OW43660   4.463   2.351   5.502
12938SOL    HW143661   4.383   2.351   5.555
12938SOL    HW243662   4.495   2.261   5.508
12939SOL     OW43663   5.200   3.007   5.334
12939SOL    HW143664   5.200   3.035   5.426
12939SOL    HW243665   5.282   3.042   5.299
12940SOL     OW43666   4.057   3.584   5.265
12940SOL    HW143667   3.986   3.555   5.207
12940SOL    HW243668   4.047   3.530   5.343
12941SOL     OW43669   5.358   2.726   4.993
12941SOL    HW143670   5.370   2.646   4.941
12941SOL    HW243671   5.361   2.797   4.928
12942SOL     OW43672   4.936   2.187   4.188
12942SOL    HW143673   4.994   2.111   4.183
12942SOL    HW243674   4.960   2.230   4.270
12943SOL     OW43675   4.277   2.603   4.443
12943SOL    HW143676   4.332   2.675   4.413
12943SOL    HW243677   4.230   2.575   4.364
12944SOL     OW43678   5.430   2.225   5.374
12944SOL    HW143679   5.449   2.247   5.282
12944SOL    HW243680   5.392   2.137   5.370
12945SOL     OW43681   5.452   2.672   5.252
12945SOL    HW143682   5.547   2.662   5.254
12945SOL    HW243683   5.432   2.701   5.163
12946SOL     OW43684   4.617   3.245   3.816
12946SOL    HW143685   4.569   3.177   3.769
12946SOL    HW243686   4.633   3.312   3.750
12947SOL     OW43687   4.402   3.646   4.630
12947SOL    HW143688   4.382   3.740   4.628
12947SOL    HW243689   4.497   3.641   4.629
12948SOL     OW43690   4.612   2.861   4.582
12948SOL    HW143691   4.649   2.780   4.617
12948SOL    HW243692   4.581   2.909   4.659
12949SOL     OW43693   4.806   2.807   3.780
12949SOL    HW143694   4.782   2.878   3.720
12949SOL    HW243695   4.750   2.734   3.753
12950SOL     OW43696   5.581   3.404   4.513
12950SOL    HW143697   5.489   3.392   4.488
12950SOL    HW243698   5.599   3.332   4.573
12951SOL     OW43699   3.931   3.148   5.565
12951SOL    HW143700   3.894   3.078   5.511
12951SOL    HW243701   3.871   3.157   5.638
12952SOL     OW43702   3.791   3.184   4.410
12952SOL    HW143703   3.815   3.119   4.477
12952SOL    HW243704   3.727   3.139   4.355
12953SOL     OW43705   4.450   3.237   5.368
12953SOL    HW143706   4.363   3.228   5.407
12953SOL    HW243707   4.493   3.304   5.420
12954SOL     OW43708   5.551   2.087   5.026
12954SOL    HW143709   5.494   2.021   5.066
12954SOL    HW243710   5.558   2.058   4.934
12955SOL     OW43711   4.184   2.254   4.242
12955SOL    HW143712   4.193   2.208   4.159
12955SOL    HW243713   4.115   2.207   4.289
12956SOL     OW43714   5.343   3.402   4.810
12956SOL    HW143715   5.291   3.365   4.739
12956SOL    HW243716   5.353   3.330   4.873
12957SOL     OW43717   4.129   2.406   5.015
12957SOL    HW143718   4.149   2.397   5.108
12957SOL    HW243719   4.124   2.316   4.982
12958SOL     OW43720   4.566   3.466   4.345
12958SOL    HW143721   4.632   3.400   4.321
12958SOL    HW243722   4.498   3.416   4.390
12959SOL     OW43723   5.060   2.013   4.892
12959SOL    HW143724   5.126   2.034   4.825
12959SOL    HW243725   5.038   1.922   4.876
12960SOL     OW43726   4.735   1.882   4.862
12960SOL    HW143727   4.675   1.808   4.871
12960SOL    HW243728   4.822   1.841   4.855
12961SOL     OW43729   4.512   3.224   4.070
12961SOL    HW143730   4.479   3.134   4.081
12961SOL    HW243731   4.542   3.227   3.979
12962SOL     OW43732   4.340   3.439   4.980
12962SOL    HW143733   4.325   3.528   5.012
12962SOL    HW243734   4.434   3.435   4.965
12963SOL     OW43735   5.106   1.892   3.929
12963SOL    HW143736   5.143   1.818   3.881
12963SOL    HW243737   5.012   1.872   3.936
12964SOL     OW43738   4.994   2.337   4.416
12964SOL    HW143739   4.949   2.421   4.408
12964SOL    HW243740   4.989   2.315   4.509
12965SOL     OW43741   5.220   2.087   4.665
12965SOL    HW143742   5.247   1.996   4.654
12965SOL    HW243743   5.258   2.133   4.591
12966SOL     OW43744   3.771   2.936   4.040
12966SOL    HW143745   3.864   2.922   4.022
12966SOL    HW243746   3.734   2.847   4.040
12967SOL     OW43747   4.535   3.512   4.036
12967SOL    HW143748   4.490   3.519   3.952
12967SOL    HW243749   4.533   3.419   4.057
12968SOL     OW43750   3.942   2.604   5.678
12968SOL    HW143751   3.859   2.586   5.721
12968SOL    HW243752   3.957   2.527   5.622
12969SOL     OW43753   3.934   2.205   6.581
12969SOL    HW143754   3.994   2.161   6.642
12969SOL    HW243755   3.860   2.145   6.573
12970SOL     OW43756   3.721   2.263   6.223
12970SOL    HW143757   3.664   2.316   6.279
12970SOL    HW243758   3.663   2.196   6.185
12971SOL     OW43759   4.355   3.142   6.828
12971SOL    HW143760   4.275   3.093   6.810
12971SOL    HW243761   4.328   3.234   6.832
12972SOL     OW43762   5.302   3.418   6.282
12972SOL    HW143763   5.257   3.376   6.355
12972SOL    HW243764   5.241   3.409   6.208
12973SOL     OW43765   4.800   2.680   6.269
12973SOL    HW143766   4.885   2.723   6.278
12973SOL    HW243767   4.781   2.646   6.357
12974SOL     OW43768   5.452   2.439   5.845
12974SOL    HW143769   5.494   2.399   5.769
12974SOL    HW243770   5.404   2.368   5.887
12975SOL     OW43771   4.582   3.020   6.712
12975SOL    HW143772   4.498   3.062   6.732
12975SOL    HW243773   4.565   2.969   6.634
12976SOL     OW43774   4.600   2.633   7.412
12976SOL    HW143775   4.521   2.676   7.446
12976SOL    HW243776   4.616   2.675   7.328
12977SOL     OW43777   4.412   2.873   6.241
12977SOL    HW143778   4.468   2.862   6.318
12977SOL    HW243779   4.335   2.919   6.274
12978SOL     OW43780   4.416   3.028   7.430
12978SOL    HW143781   4.454   3.105   7.473
12978SOL    HW243782   4.328   3.057   7.404
12979SOL     OW43783   4.048   3.328   6.642
12979SOL    HW143784   3.974   3.280   6.604
12979SOL    HW243785   4.100   3.354   6.566
12980SOL     OW43786   5.160   3.373   6.960
12980SOL    HW143787   5.215   3.449   6.977
12980SOL    HW243788   5.092   3.376   7.026
12981SOL     OW43789   4.160   2.225   7.106
12981SOL    HW143790   4.243   2.178   7.106
12981SOL    HW243791   4.094   2.159   7.083
12982SOL     OW43792   5.338   2.347   6.352
12982SOL    HW143793   5.250   2.349   6.316
12982SOL    HW243794   5.345   2.261   6.395
12983SOL     OW43795   3.942   3.588   6.056
12983SOL    HW143796   4.019   3.580   6.001
12983SOL    HW243797   3.929   3.501   6.093
12984SOL     OW43798   4.823   3.217   7.323
12984SOL    HW143799   4.861   3.178   7.402
12984SOL    HW243800   4.766   3.148   7.288
12985SOL     OW43801   3.892   3.340   6.172
12985SOL    HW143802   3.840   3.382   6.240
12985SOL    HW243803   3.882   3.246   6.188
12986SOL     OW43804   3.979   2.931   6.472
12986SOL    HW143805   4.003   2.839   6.483
12986SOL    HW243806   3.889   2.936   6.503
12987SOL     OW43807   4.335   3.611   7.088
12987SOL    HW143808   4.257   3.601   7.142
12987SOL    HW243809   4.353   3.706   7.089
12988SOL     OW43810   4.315   2.816   5.770
12988SOL    HW143811   4.381   2.756   5.736
12988SOL    HW243812   4.356   2.857   5.846
12989SOL     OW43813   5.337   1.922   7.101
12989SOL    HW143814   5.277   1.924   7.026
12989SOL    HW243815   5.320   1.838   7.143
12990SOL     OW43816   3.827   2.506   6.132
12990SOL    HW143817   3.796   2.415   6.139
12990SOL    HW243818   3.813   2.543   6.219
12991SOL     OW43819   5.563   3.604   5.883
12991SOL    HW143820   5.631   3.593   5.949
12991SOL    HW243821   5.578   3.692   5.847
12992SOL     OW43822   3.797   3.448   5.681
12992SOL    HW143823   3.767   3.359   5.699
12992SOL    HW243824   3.762   3.501   5.753
12993SOL     OW43825   5.500   2.787   6.239
12993SOL    HW143826   5.545   2.714   6.281
12993SOL    HW243827   5.452   2.747   6.167
12994SOL     OW43828   5.381   2.993   5.989
12994SOL    HW143829   5.468   2.959   5.968
12994SOL    HW243830   5.394   3.046   6.067
12995SOL     OW43831   3.867   2.572   7.129
12995SOL    HW143832   3.822   2.528   7.201
12995SOL    HW243833   3.816   2.651   7.113
12996SOL     OW43834   4.325   3.245   6.297
12996SOL    HW143835   4.280   3.162   6.312
12996SOL    HW243836   4.312   3.263   6.204
12997SOL     OW43837   4.980   3.063   6.992
12997SOL    HW143838   5.021   3.026   6.913
12997SOL    HW243839   5.000   3.000   7.061
12998SOL     OW43840   4.556   1.944   6.167
12998SOL    HW143841   4.466   1.976   6.159
12998SOL    HW243842   4.547   1.849   6.177
12999SOL     OW43843   3.923   2.802   6.872
12999SOL    HW143844   4.011   2.773   6.849
12999SOL    HW243845   3.865   2.736   6.836
13000SOL     OW43846   5.294   2.868   5.758
13000SOL    HW143847   5.250   2.785   5.780
13000SOL    HW243848   5.320   2.904   5.843
13001SOL     OW43849   4.860   3.642   7.204
13001SOL    HW143850   4.875   3.712   7.140
13001SOL    HW243851   4.903   3.566   7.167
13002SOL     OW43852   4.039   2.133   7.406
13002SOL    HW143853   4.077   2.194   7.469
13002SOL    HW243854   3.954   2.110   7.443
13003SOL     OW43855   5.166   3.304   6.495
13003SOL    HW143856   5.107   3.303   6.570
13003SOL    HW243857   5.175   3.212   6.471
13004SOL     OW43858   5.346   3.678   6.128
13004SOL    HW143859   5.335   3.629   6.047
13004SOL    HW243860   5.344   3.612   6.197
13005SOL     OW43861   4.277   2.555   5.871
13005SOL    HW143862   4.260   2.645   5.844
13005SOL    HW243863   4.214   2.539   5.942
13006SOL     OW43864   5.014   2.263   6.528
13006SOL    HW143865   4.927   2.223   6.533
13006SOL    HW243866   5.071   2.198   6.569
13007SOL     OW43867   5.294   3.539   5.897
13007SOL    HW143868   5.388   3.541   5.882
13007SOL    HW243869   5.256   3.524   5.811
13008SOL     OW43870   4.505   2.461   7.061
13008SOL    HW143871   4.485   2.427   7.148
13008SOL    HW243872   4.465   2.399   7.000
13009SOL     OW43873   5.160   2.363   7.267
13009SOL    HW143874   5.145   2.381   7.360
13009SOL    HW243875   5.209   2.281   7.266
13010SOL     OW43876   4.677   2.761   7.169
13010SOL    HW143877   4.725   2.683   7.141
13010SOL    HW243878   4.636   2.793   7.089
13011SOL     OW43879   4.714   2.253   6.797
13011SOL    HW143880   4.667   2.197   6.859
13011SOL    HW243881   4.703   2.209   6.712
13012SOL     OW43882   4.757   2.591   6.012
13012SOL    HW143883   4.770   2.611   6.105
13012SOL    HW243884   4.677   2.538   6.010
13013SOL     OW43885   3.793   2.605   6.389
13013SOL    HW143886   3.879   2.628   6.425
13013SOL    HW243887   3.755   2.546   6.454
13014SOL     OW43888   3.865   3.729   7.155
13014SOL    HW143889   3.824   3.713   7.240
13014SOL    HW243890   3.833   3.659   7.099
13015SOL     OW43891   4.562   2.218   5.824
13015SOL    HW143892   4.581   2.179   5.739
13015SOL    HW243893   4.475   2.186   5.847
13016SOL     OW43894   5.456   2.504   7.413
13016SOL    HW143895   5.395   2.535   7.346
13016SOL    HW243896   5.497   2.427   7.375
13017SOL     OW43897   5.136   3.016   6.127
13017SOL    HW143898   5.209   2.994   6.069
13017SOL    HW243899   5.075   3.064   6.072
13018SOL     OW43900   4.323   2.104   6.404
13018SOL    HW143901   4.347   2.027   6.456
13018SOL    HW243902   4.317   2.072   6.314
13019SOL     OW43903   4.709   3.316   6.020
13019SOL    HW143904   4.690   3.398   5.976
13019SOL    HW243905   4.672   3.326   6.108
13020SOL     OW43906   4.097   3.680   6.442
13020SOL    HW143907   4.149   3.600   6.455
13020SOL    HW243908   4.157   3.751   6.462
13021SOL     OW43909   5.509   2.961   6.447
13021SOL    HW143910   5.511   2.897   6.376
13021SOL    HW243911   5.420   2.996   6.446
13022SOL     OW43912   4.941   3.387   7.128
13022SOL    HW143913   4.930   3.318   7.193
13022SOL    HW243914   4.886   3.360   7.054
13023SOL     OW43915   4.040   2.832   5.825
13023SOL    HW143916   4.130   2.832   5.791
13023SOL    HW243917   4.002   2.751   5.791
13024SOL     OW43918   5.193   2.610   6.304
13024SOL    HW143919   5.135   2.535   6.292
13024SOL    HW243920   5.269   2.575   6.350
13025SOL     OW43921   4.167   3.133   7.371
13025SOL    HW143922   4.151   3.134   7.277
13025SOL    HW243923   4.080   3.123   7.410
13026SOL     OW43924   4.881   3.621   5.827
13026SOL    HW143925   4.793   3.606   5.861
13026SOL    HW243926   4.897   3.548   5.767
13027SOL     OW43927   3.935   2.090   7.021
13027SOL    HW143928   3.858   2.096   6.963
13027SOL    HW243929   3.914   2.018   7.080
13028SOL     OW43930   5.368   3.269   5.682
13028SOL    HW143931   5.319   3.348   5.661
13028SOL    HW243932   5.313   3.197   5.651
13029SOL     OW43933   4.182   3.620   5.913
13029SOL    HW143934   4.234   3.664   5.981
13029SOL    HW243935   4.247   3.574   5.860
13030SOL     OW43936   5.113   2.042   5.958
13030SOL    HW143937   5.069   2.007   5.881
13030SOL    HW243938   5.142   1.964   6.006
13031SOL     OW43939   4.002   3.655   6.777
13031SOL    HW143940   4.020   3.574   6.826
13031SOL    HW243941   3.943   3.627   6.707
13032SOL     OW43942   4.664   3.557   6.432
13032SOL    HW143943   4.746   3.510   6.453
13032SOL    HW243944   4.621   3.502   6.367
13033SOL     OW43945   4.099   2.526   6.074
13033SOL    HW143946   4.125   2.438   6.100
13033SOL    HW243947   4.004   2.527   6.083
13034SOL     OW43948   5.300   2.130   7.300
13034SOL    HW143949   5.276   2.104   7.389
13034SOL    HW243950   5.309   2.048   7.252
13035SOL     OW43951   4.330   1.973   5.634
13035SOL    HW143952   4.340   1.878   5.646
13035SOL    HW243953   4.288   1.983   5.549
13036SOL     OW43954   4.505   2.128   7.400
13036SOL    HW143955   4.586   2.079   7.382
13036SOL    HW243956   4.454   2.070   7.456
13037SOL     OW43957   4.596   3.395   6.764
13037SOL    HW143958   4.565   3.358   6.681
13037SOL    HW243959   4.665   3.335   6.792
13038SOL     OW43960   5.089   2.432   7.004
13038SOL    HW143961   5.106   2.399   7.092
13038SOL    HW243962   5.158   2.392   6.950
13039SOL     OW43963   4.492   3.292   6.527
13039SOL    HW143964   4.580   3.269   6.499
13039SOL    HW243965   4.434   3.246   6.467
13040SOL     OW43966   4.691   2.381   6.475
13040SOL    HW143967   4.663   2.376   6.384
13040SOL    HW243968   4.719   2.292   6.496
13041SOL     OW43969   4.290   2.025   6.130
13041SOL    HW143970   4.214   1.971   6.153
13041SOL    HW243971   4.297   2.017   6.035
13042SOL     OW43972   5.191   3.070   5.605
13042SOL    HW143973   5.226   2.996   5.654
13042SOL    HW243974   5.109   3.093   5.649
13043SOL     OW43975   4.030   1.910   5.810
13043SOL    HW143976   4.123   1.899   5.830
13043SOL    HW243977   3.986   1.853   5.873
13044SOL     OW43978   4.699   2.147   6.055
13044SOL    HW143979   4.658   2.158   5.969
13044SOL    HW243980   4.658   2.069   6.091
13045SOL     OW43981   4.781   2.534   7.046
13045SOL    HW143982   4.704   2.479   7.061
13045SOL    HW243983   4.855   2.474   7.057
13046SOL     OW43984   4.926   3.435   6.380
13046SOL    HW143985   4.947   3.502   6.316
13046SOL    HW243986   5.011   3.401   6.408
13047SOL     OW43987   4.181   3.015   6.304
13047SOL    HW143988   4.113   2.989   6.367
13047SOL    HW243989   4.139   3.004   6.219
13048SOL     OW43990   4.966   3.654   6.205
13048SOL    HW143991   5.011   3.718   6.149
13048SOL    HW243992   4.890   3.701   6.239
13049SOL     OW43993   4.726   2.453   5.624
13049SOL    HW143994   4.649   2.397   5.622
13049SOL    HW243995   4.775   2.424   5.702
13050SOL     OW43996   3.838   2.476   6.862
13050SOL    HW143997   3.921   2.427   6.869
13050SOL    HW243998   3.819   2.503   6.952
13051SOL     OW43999   4.343   2.078   6.743
13051SOL    HW144000   4.370   2.008   6.683
13051SOL    HW244001   4.248   2.067   6.751
13052SOL     OW44002   4.618   2.359   6.213
13052SOL    HW144003   4.565   2.396   6.142
13052SOL    HW244004   4.654   2.279   6.176
13053SOL     OW44005   4.787   1.963   6.323
13053SOL    HW144006   4.706   1.953   6.272
13053SOL    HW244007   4.842   1.890   6.295
13054SOL     OW44008   5.208   3.046   6.406
13054SOL    HW144009   5.149   2.972   6.422
13054SOL    HW244010   5.216   3.050   6.311
13055SOL     OW44011   5.130   2.485   6.658
13055SOL    HW144012   5.088   2.412   6.613
13055SOL    HW244013   5.217   2.452   6.680
13056SOL     OW44014   5.647   2.640   5.902
13056SOL    HW144015   5.671   2.603   5.986
13056SOL    HW244016   5.582   2.580   5.866
13057SOL     OW44017   4.220   3.310   5.746
13057SOL    HW144018   4.138   3.287   5.791
13057SOL    HW244019   4.214   3.266   5.661
13058SOL     OW44020   5.427   3.158   6.202
13058SOL    HW144021   5.519   3.143   6.221
13058SOL    HW244022   5.415   3.252   6.215
13059SOL     OW44023   5.093   2.422   5.666
13059SOL    HW144024   5.025   2.408   5.731
13059SOL    HW244025   5.141   2.339   5.664
13060SOL     OW44026   4.305   2.137   5.853
13060SOL    HW144027   4.306   2.060   5.796
13060SOL    HW244028   4.266   2.206   5.799
13061SOL     OW44029   5.439   3.064   7.158
13061SOL    HW144030   5.521   3.024   7.130
13061SOL    HW244031   5.465   3.143   7.206
13062SOL     OW44032   4.785   3.256   6.945
13062SOL    HW144033   4.701   3.225   6.978
13062SOL    HW244034   4.843   3.181   6.951
13063SOL     OW44035   5.370   3.587   7.275
13063SOL    HW144036   5.343   3.593   7.183
13063SOL    HW244037   5.431   3.513   7.277
13064SOL     OW44038   4.840   3.116   6.675
13064SOL    HW144039   4.762   3.070   6.708
13064SOL    HW244040   4.814   3.149   6.589
13065SOL     OW44041   5.375   2.967   6.723
13065SOL    HW144042   5.377   3.037   6.787
13065SOL    HW244043   5.283   2.959   6.699
13066SOL     OW44044   4.588   1.968   6.957
13066SOL    HW144045   4.628   1.945   6.873
13066SOL    HW244046   4.660   2.003   7.009
13067SOL     OW44047   4.633   3.024   7.250
13067SOL    HW144048   4.560   3.012   7.311
13067SOL    HW244049   4.660   2.935   7.227
13068SOL     OW44050   4.461   2.929   5.975
13068SOL    HW144051   4.438   2.912   6.067
13068SOL    HW244052   4.546   2.885   5.964
13069SOL     OW44053   4.175   2.695   6.824
13069SOL    HW144054   4.236   2.704   6.897
13069SOL    HW244055   4.157   2.601   6.820
13070SOL     OW44056   4.980   2.207   6.868
13070SOL    HW144057   4.997   2.292   6.906
13070SOL    HW244058   4.891   2.213   6.832
13071SOL     OW44059   3.809   3.512   6.987
13071SOL    HW144060   3.754   3.524   6.908
13071SOL    HW244061   3.881   3.457   6.958
13072SOL     OW44062   4.075   3.001   6.050
13072SOL    HW144063   4.045   3.076   5.998
13072SOL    HW244064   4.064   2.926   5.991
13073SOL     OW44065   4.303   2.371   6.454
13073SOL    HW144066   4.302   2.405   6.364
13073SOL    HW244067   4.314   2.277   6.444
13074SOL     OW44068   4.966   3.205   5.990
13074SOL    HW144069   5.021   3.275   6.025
13074SOL    HW244070   4.877   3.232   6.008
13075SOL     OW44071   5.013   3.329   6.722
13075SOL    HW144072   5.057   3.329   6.807
13075SOL    HW244073   4.950   3.257   6.728
13076SOL     OW44074   5.359   2.638   6.045
13076SOL    HW144075   5.293   2.598   6.102
13076SOL    HW244076   5.383   2.569   5.984
13077SOL     OW44077   4.062   3.404   6.899
13077SOL    HW144078   4.042   3.363   6.815
13077SOL    HW244079   4.157   3.413   6.900
13078SOL     OW44080   5.271   2.615   7.226
13078SOL    HW144081   5.232   2.530   7.245
13078SOL    HW244082   5.240   2.637   7.138
13079SOL     OW44083   4.694   1.923   7.388
13079SOL    HW144084   4.775   1.920   7.440
13079SOL    HW244085   4.721   1.897   7.300
13080SOL     OW44086   4.209   1.917   7.335
13080SOL    HW144087   4.176   1.869   7.258
13080SOL    HW244088   4.148   1.990   7.345
13081SOL     OW44089   4.305   2.795   6.596
13081SOL    HW144090   4.239   2.770   6.532
13081SOL    HW244091   4.271   2.765   6.680
13082SOL     OW44092   5.011   2.730   6.642
13082SOL    HW144093   4.928   2.708   6.600
13082SOL    HW244094   5.057   2.646   6.649
13083SOL     OW44095   4.891   2.406   5.855
13083SOL    HW144096   4.920   2.339   5.917
13083SOL    HW244097   4.846   2.471   5.909
13084SOL     OW44098   4.067   2.065   6.777
13084SOL    HW144099   4.035   2.078   6.866
13084SOL    HW244100   4.048   1.973   6.758
13085SOL     OW44101   3.798   3.197   6.859
13085SOL    HW144102   3.844   3.134   6.915
13085SOL    HW244103   3.706   3.189   6.884
13086SOL     OW44104   4.487   2.451   6.645
13086SOL    HW144105   4.564   2.421   6.598
13086SOL    HW244106   4.414   2.435   6.585
13087SOL     OW44107   5.455   2.780   7.445
13087SOL    HW144108   5.476   2.687   7.448
13087SOL    HW244109   5.413   2.798   7.529
13088SOL     OW44110   4.053   1.913   6.221
13088SOL    HW144111   4.018   1.997   6.249
13088SOL    HW244112   4.066   1.863   6.302
13089SOL     OW44113   5.327   2.212   5.940
13089SOL    HW144114   5.396   2.167   5.989
13089SOL    HW244115   5.248   2.161   5.959
13090SOL     OW44116   4.752   2.637   6.549
13090SOL    HW144117   4.727   2.639   6.642
13090SOL    HW244118   4.741   2.546   6.523
13091SOL     OW44119   4.665   3.440   7.266
13091SOL    HW144120   4.726   3.511   7.246
13091SOL    HW244121   4.721   3.364   7.282
13092SOL     OW44122   5.552   3.386   7.204
13092SOL    HW144123   5.572   3.374   7.111
13092SOL    HW244124   5.638   3.383   7.246
13093SOL     OW44125   4.051   2.784   7.420
13093SOL    HW144126   4.136   2.799   7.460
13093SOL    HW244127   4.032   2.692   7.438
13094SOL     OW44128   5.205   2.166   5.681
13094SOL    HW144129   5.138   2.101   5.704
13094SOL    HW244130   5.260   2.172   5.759
13095SOL     OW44131   5.069   2.690   5.634
13095SOL    HW144132   5.076   2.596   5.647
13095SOL    HW244133   5.100   2.704   5.545
13096SOL     OW44134   4.744   3.235   6.440
13096SOL    HW144135   4.761   3.151   6.398
13096SOL    HW244136   4.810   3.294   6.404
13097SOL     OW44137   4.055   2.666   6.483
13097SOL    HW144138   4.115   2.651   6.410
13097SOL    HW244139   4.065   2.589   6.539
13098SOL     OW44140   4.092   2.426   6.615
13098SOL    HW144141   4.032   2.355   6.595
13098SOL    HW244142   4.171   2.406   6.565
13099SOL     OW44143   4.883   2.322   7.234
13099SOL    HW144144   4.845   2.365   7.311
13099SOL    HW244145   4.977   2.320   7.251
13100SOL     OW44146   4.784   2.123   7.067
13100SOL    HW144147   4.809   2.187   7.134
13100SOL    HW244148   4.866   2.106   7.019
13101SOL     OW44149   3.749   3.183   5.774
13101SOL    HW144150   3.658   3.202   5.753
13101SOL    HW244151   3.748   3.097   5.816
13102SOL     OW44152   3.840   3.618   6.538
13102SOL    HW144153   3.807   3.546   6.484
13102SOL    HW244154   3.927   3.636   6.504
13103SOL     OW44155   4.247   3.447   6.471
13103SOL    HW144156   4.320   3.432   6.531
13103SOL    HW244157   4.260   3.384   6.400
13104SOL     OW44158   4.651   2.615   6.805
13104SOL    HW144159   4.699   2.571   6.875
13104SOL    HW244160   4.590   2.550   6.772
13105SOL     OW44161   3.752   2.431   6.608
13105SOL    HW144162   3.795   2.347   6.588
13105SOL    HW244163   3.781   2.452   6.696
13106SOL     OW44164   3.895   2.310   7.248
13106SOL    HW144165   3.949   2.245   7.293
13106SOL    HW244166   3.807   2.271   7.246
13107SOL     OW44167   5.088   2.852   7.214
13107SOL    HW144168   5.049   2.787   7.272
13107SOL    HW244169   5.094   2.807   7.129
13108SOL     OW44170   4.524   2.454   5.963
13108SOL    HW144171   4.541   2.373   5.915
13108SOL    HW244172   4.437   2.481   5.934
13109SOL     OW44173   5.390   2.437   6.756
13109SOL    HW144174   5.410   2.366   6.818
13109SOL    HW244175   5.459   2.432   6.690
13110SOL     OW44176   3.954   3.416   7.366
13110SOL    HW144177   3.908   3.447   7.444
13110SOL    HW244178   3.956   3.321   7.376
13111SOL     OW44179   4.375   2.321   6.862
13111SOL    HW144180   4.369   2.229   6.837
13111SOL    HW244181   4.420   2.363   6.788
13112SOL     OW44182   4.613   3.554   6.986
13112SOL    HW144183   4.630   3.516   6.900
13112SOL    HW244184   4.622   3.648   6.973
13113SOL     OW44185   4.243   2.354   5.680
13113SOL    HW144186   4.250   2.425   5.745
13113SOL    HW244187   4.156   2.366   5.642
13114SOL     OW44188   3.903   3.012   7.047
13114SOL    HW144189   3.870   2.975   7.129
13114SOL    HW244190   3.908   2.938   6.988
13115SOL     OW44191   5.076   2.976   6.737
13115SOL    HW144192   5.060   2.886   6.710
13115SOL    HW244193   4.998   3.024   6.707
13116SOL     OW44194   4.965   2.764   5.892
13116SOL    HW144195   4.930   2.693   5.945
13116SOL    HW244196   5.008   2.719   5.818
13117SOL     OW44197   5.517   3.592   6.775
13117SOL    HW144198   5.580   3.610   6.705
13117SOL    HW244199   5.464   3.520   6.741
13118SOL     OW44200   4.933   3.598   6.691
13118SOL    HW144201   5.023   3.624   6.675
13118SOL    HW244202   4.937   3.502   6.701
13119SOL     OW44203   3.797   3.218   6.583
13119SOL    HW144204   3.798   3.211   6.679
13119SOL    HW244205   3.765   3.133   6.554
13120SOL     OW44206   5.506   2.063   6.086
13120SOL    HW144207   5.581   2.037   6.032
13120SOL    HW244208   5.462   1.980   6.106
13121SOL     OW44209   5.109   3.434   6.082
13121SOL    HW144210   5.160   3.465   6.008
13121SOL    HW244211   5.048   3.505   6.101
13122SOL     OW44212   3.801   3.713   7.427
13122SOL    HW144213   3.762   3.630   7.453
13122SOL    HW244214   3.869   3.729   7.492
13123SOL     OW44215   5.031   2.833   6.303
13123SOL    HW144216   5.090   2.758   6.310
13123SOL    HW244217   5.065   2.885   6.231
13124SOL     OW44218   4.532   3.198   7.046
13124SOL    HW144219   4.552   3.126   7.106
13124SOL    HW244220   4.475   3.159   6.980
13125SOL     OW44221   4.390   3.528   5.735
13125SOL    HW144222   4.415   3.531   5.642
13125SOL    HW244223   4.341   3.447   5.744
13126SOL     OW44224   5.327   3.595   6.998
13126SOL    HW144225   5.393   3.588   6.929
13126SOL    HW244226   5.304   3.688   7.000
13127SOL     OW44227   5.616   2.026   6.542
13127SOL    HW144228   5.660   1.947   6.511
13127SOL    HW244229   5.534   2.028   6.493
13128SOL     OW44230   3.970   2.169   6.301
13128SOL    HW144231   3.883   2.196   6.271
13128SOL    HW244232   3.967   2.180   6.396
13129SOL     OW44233   4.924   3.412   5.651
13129SOL    HW144234   4.927   3.318   5.671
13129SOL    HW244235   4.847   3.421   5.594
13130SOL     OW44236   4.574   2.845   6.928
13130SOL    HW144237   4.603   2.766   6.883
13130SOL    HW244238   4.579   2.914   6.862
13131SOL     OW44239   4.693   2.823   5.874
13131SOL    HW144240   4.787   2.842   5.873
13131SOL    HW244241   4.687   2.735   5.912
13132SOL     OW44242   5.187   3.519   5.643
13132SOL    HW144243   5.099   3.482   5.632
13132SOL    HW244244   5.225   3.516   5.555
13133SOL     OW44245   4.089   3.207   7.101
13133SOL    HW144246   4.063   3.274   7.038
13133SOL    HW244247   4.030   3.134   7.084
13134SOL     OW44248   5.348   3.179   6.904
13134SOL    HW144249   5.373   3.136   6.985
13134SOL    HW244250   5.272   3.233   6.928
13135SOL     OW44251   4.795   2.983   6.360
13135SOL    HW144252   4.726   2.919   6.377
13135SOL    HW244253   4.873   2.930   6.340
13136SOL     OW44254   4.773   2.123   6.544
13136SOL    HW144255   4.774   2.075   6.461
13136SOL    HW244256   4.770   2.055   6.611
13137SOL     OW44257   4.289   3.314   6.034
13137SOL    HW144258   4.330   3.284   5.952
13137SOL    HW244259   4.195   3.304   6.018
13138SOL     OW44260   5.497   2.240   6.927
13138SOL    HW144261   5.587   2.268   6.909
13138SOL    HW244262   5.492   2.151   6.891
13139SOL     OW44263   3.992   3.251   5.922
13139SOL    HW144264   3.916   3.230   5.869
13139SOL    HW244265   3.956   3.283   6.005
13140SOL     OW44266   3.833   2.927   7.318
13140SOL    HW144267   3.757   2.883   7.356
13140SOL    HW244268   3.908   2.873   7.346
13141SOL     OW44269   4.384   2.077   7.102
13141SOL    HW144270   4.454   2.050   7.042
13141SOL    HW244271   4.416   2.051   7.189
13142SOL     OW44272   3.724   2.226   5.628
13142SOL    HW144273   3.722   2.180   5.712
13142SOL    HW244274   3.799   2.188   5.581
13143SOL     OW44275   5.148   2.706   6.994
13143SOL    HW144276   5.098   2.628   6.972
13143SOL    HW244277   5.218   2.709   6.929
13144SOL     OW44278   3.770   2.078   5.848
13144SOL    HW144279   3.769   1.999   5.794
13144SOL    HW244280   3.836   2.060   5.915
13145SOL     OW44281   4.949   3.135   5.720
13145SOL    HW144282   4.911   3.048   5.708
13145SOL    HW244283   4.953   3.146   5.815
13146SOL     OW44284   4.359   2.694   7.024
13146SOL    HW144285   4.427   2.757   6.999
13146SOL    HW244286   4.407   2.613   7.042
13147SOL     OW44287   5.207   3.649   6.644
13147SOL    HW144288   5.231   3.646   6.551
13147SOL    HW244289   5.245   3.570   6.682
13148SOL     OW44290   4.454   2.387   7.317
13148SOL    HW144291   4.505   2.436   7.382
13148SOL    HW244292   4.463   2.296   7.343
13149SOL     OW44293   4.104   3.617   7.240
13149SOL    HW144294   4.028   3.658   7.198
13149SOL    HW244295   4.069   3.538   7.281
13150SOL     OW44296   5.385   2.697   6.850
13150SOL    HW144297   5.385   2.609   6.812
13150SOL    HW244298   5.378   2.756   6.775
13151SOL     OW44299   4.957   2.237   6.065
13151SOL    HW144300   5.014   2.165   6.038
13151SOL    HW244301   4.870   2.196   6.074
13152SOL     OW44302   4.237   2.646   6.282
13152SOL    HW144303   4.308   2.700   6.248
13152SOL    HW244304   4.196   2.608   6.205
13153SOL     OW44305   5.492   2.299   7.204
13153SOL    HW144306   5.489   2.281   7.110
13153SOL    HW244307   5.432   2.235   7.243
13154SOL     OW44308   5.493   2.774   7.095
13154SOL    HW144309   5.565   2.715   7.117
13154SOL    HW244310   5.464   2.745   7.009
13155SOL     OW44311   4.482   3.714   6.577
13155SOL    HW144312   4.423   3.755   6.514
13155SOL    HW244313   4.528   3.647   6.527
13156SOL     OW44314   4.555   2.838   6.488
13156SOL    HW144315   4.614   2.764   6.504
13156SOL    HW244316   4.472   2.811   6.527
13157SOL     OW44317   4.862   2.879   5.635
13157SOL    HW144318   4.805   2.809   5.603
13157SOL    HW244319   4.946   2.836   5.651
13158SOL     OW44320   5.546   3.434   6.416
13158SOL    HW144321   5.464   3.433   6.366
13158SOL    HW244322   5.558   3.344   6.446
13159SOL     OW44323   3.908   3.154   7.452
13159SOL    HW144324   3.877   3.078   7.404
13159SOL    HW244325   3.845   3.165   7.523
13160SOL     OW44326   3.825   3.084   6.241
13160SOL    HW144327   3.825   3.053   6.331
13160SOL    HW244328   3.827   3.005   6.188
13161SOL     OW44329   4.300   3.334   7.226
13161SOL    HW144330   4.229   3.299   7.171
13161SOL    HW244331   4.284   3.297   7.313
13162SOL     OW44332   5.510   1.977   6.802
13162SOL    HW144333   5.440   1.925   6.761
13162SOL    HW244334   5.572   1.994   6.731
13163SOL     OW44335   4.178   2.284   6.160
13163SOL    HW144336   4.233   2.211   6.132
13163SOL    HW244337   4.108   2.243   6.211
13164SOL     OW44338   5.352   3.388   6.697
13164SOL    HW144339   5.300   3.349   6.626
13164SOL    HW244340   5.359   3.318   6.762
13165SOL     OW44341   4.117   2.420   6.886
13165SOL    HW144342   4.200   2.374   6.900
13165SOL    HW244343   4.103   2.415   6.792
13166SOL     OW44344   4.538   3.414   6.230
13166SOL    HW144345   4.485   3.452   6.159
13166SOL    HW244346   4.482   3.347   6.268
13167SOL     OW44347   5.154   2.079   6.673
13167SOL    HW144348   5.174   1.985   6.674
13167SOL    HW244349   5.099   2.092   6.750
13168SOL     OW44350   4.749   1.921   6.729
13168SOL    HW144351   4.721   1.859   6.662
13168SOL    HW244352   4.798   1.868   6.792
13169SOL     OW44353   4.615   3.117   5.837
13169SOL    HW144354   4.553   3.072   5.895
13169SOL    HW244355   4.655   3.184   5.893
13170SOL     OW44356   4.342   3.425   6.882
13170SOL    HW144357   4.342   3.507   6.932
13170SOL    HW244358   4.425   3.426   6.835
13171SOL     OW44359   4.995   1.986   5.713
13171SOL    HW144360   5.002   1.893   5.693
13171SOL    HW244361   4.902   2.005   5.704
13172SOL     OW44362   5.070   2.371   6.278
13172SOL    HW144363   5.027   2.324   6.206
13172SOL    HW244364   5.036   2.328   6.357
13173SOL     OW44365   5.335   2.089   6.452
13173SOL    HW144366   5.279   2.077   6.529
13173SOL    HW244367   5.311   2.017   6.393
13174SOL     OW44368   3.789   2.933   5.888
13174SOL    HW144369   3.880   2.918   5.861
13174SOL    HW244370   3.754   2.845   5.903
13175SOL     OW44371   4.619   3.559   5.918
13175SOL    HW144372   4.547   3.553   5.855
13175SOL    HW244373   4.592   3.629   5.978
13176SOL     OW44374   3.893   2.485   7.536
13176SOL    HW144375   3.845   2.493   7.618
13176SOL    HW244376   3.825   2.466   7.471
13177SOL     OW44377   3.889   2.141   8.457
13177SOL    HW144378   3.965   2.121   8.512
13177SOL    HW244379   3.814   2.135   8.517
13178SOL     OW44380   3.712   2.166   8.157
13178SOL    HW144381   3.640   2.227   8.178
13178SOL    HW244382   3.684   2.123   8.077
13179SOL     OW44383   5.328   3.361   8.150
13179SOL    HW144384   5.276   3.340   8.228
13179SOL    HW244385   5.263   3.374   8.081
13180SOL     OW44386   4.874   2.545   8.104
13180SOL    HW144387   4.901   2.630   8.138
13180SOL    HW244388   4.822   2.507   8.175
13181SOL     OW44389   5.452   2.461   7.699
13181SOL    HW144390   5.451   2.469   7.603
13181SOL    HW244391   5.429   2.370   7.716
13182SOL     OW44392   4.567   2.982   8.531
13182SOL    HW144393   4.573   2.944   8.619
13182SOL    HW244394   4.526   3.068   8.545
13183SOL     OW44395   4.622   2.745   9.329
13183SOL    HW144396   4.604   2.733   9.422
13183SOL    HW244397   4.594   2.664   9.288
13184SOL     OW44398   4.418   2.846   8.102
13184SOL    HW144399   4.489   2.838   8.165
13184SOL    HW244400   4.352   2.899   8.147
13185SOL     OW44401   4.451   3.068   9.222
13185SOL    HW144402   4.467   3.137   9.287
13185SOL    HW244403   4.356   3.067   9.212
13186SOL     OW44404   4.063   3.238   8.497
13186SOL    HW144405   3.978   3.240   8.453
13186SOL    HW244406   4.120   3.293   8.443
13187SOL     OW44407   5.186   3.345   8.804
13187SOL    HW144408   5.214   3.436   8.815
13187SOL    HW244409   5.117   3.334   8.869
13188SOL     OW44410   5.344   2.319   8.236
13188SOL    HW144411   5.260   2.319   8.192
13188SOL    HW244412   5.340   2.246   8.297
13189SOL     OW44413   4.823   3.215   9.153
13189SOL    HW144414   4.857   3.197   9.240
13189SOL    HW244415   4.781   3.134   9.126
13190SOL     OW44416   3.900   3.383   8.100
13190SOL    HW144417   3.830   3.398   8.164
13190SOL    HW244418   3.903   3.288   8.090
13191SOL     OW44419   3.997   2.938   8.403
13191SOL    HW144420   4.019   2.845   8.403
13191SOL    HW244421   3.913   2.943   8.357
13192SOL     OW44422   4.298   3.679   8.889
13192SOL    HW144423   4.221   3.654   8.941
13192SOL    HW244424   4.329   3.759   8.929
13193SOL     OW44425   4.293   2.836   7.605
13193SOL    HW144426   4.339   2.887   7.538
13193SOL    HW244427   4.334   2.861   7.687
13194SOL     OW44428   5.271   2.062   8.896
13194SOL    HW144429   5.183   2.100   8.892
13194SOL    HW244430   5.262   1.987   8.955
13195SOL     OW44431   3.864   2.527   8.020
13195SOL    HW144432   3.828   2.438   8.020
13195SOL    HW244433   3.840   2.562   8.105
13196SOL     OW44434   5.545   3.621   7.757
13196SOL    HW144435   5.614   3.606   7.822
13196SOL    HW244436   5.559   3.711   7.728
13197SOL     OW44437   3.787   3.471   7.578
13197SOL    HW144438   3.749   3.384   7.588
13197SOL    HW244439   3.767   3.516   7.659
13198SOL     OW44440   5.373   3.001   7.834
13198SOL    HW144441   5.456   2.965   7.802
13198SOL    HW244442   5.395   3.038   7.920
13199SOL     OW44443   4.355   3.236   8.167
13199SOL    HW144444   4.313   3.152   8.184
13199SOL    HW244445   4.332   3.258   8.077
13200SOL     OW44446   4.533   1.961   7.942
13200SOL    HW144447   4.558   1.875   7.975
13200SOL    HW244448   4.442   1.971   7.968
13201SOL     OW44449   3.907   2.840   8.687
13201SOL    HW144450   3.976   2.776   8.703
13201SOL    HW244451   3.828   2.789   8.672
13202SOL     OW44452   5.241   2.840   7.648
13202SOL    HW144453   5.174   2.782   7.685
13202SOL    HW244454   5.281   2.881   7.725
13203SOL     OW44455   4.883   3.610   9.026
13203SOL    HW144456   4.873   3.705   9.025
13203SOL    HW244457   4.883   3.587   9.119
13204SOL     OW44458   5.179   3.296   8.374
13204SOL    HW144459   5.243   3.284   8.444
13204SOL    HW244460   5.154   3.207   8.348
13205SOL     OW44461   5.414   3.670   8.052
13205SOL    HW144462   5.481   3.601   8.051
13205SOL    HW244463   5.350   3.640   8.117
13206SOL     OW44464   4.275   2.543   7.689
13206SOL    HW144465   4.298   2.634   7.670
13206SOL    HW244466   4.232   2.547   7.775
13207SOL     OW44467   5.021   2.259   8.370
13207SOL    HW144468   4.935   2.223   8.350
13207SOL    HW244469   5.059   2.197   8.433
13208SOL     OW44470   5.266   3.602   7.770
13208SOL    HW144471   5.360   3.604   7.786
13208SOL    HW244472   5.254   3.535   7.704
13209SOL     OW44473   4.472   2.511   8.891
13209SOL    HW144474   4.484   2.501   8.986
13209SOL    HW244475   4.438   2.426   8.862
13210SOL     OW44476   5.169   2.380   9.117
13210SOL    HW144477   5.130   2.403   9.202
13210SOL    HW244478   5.174   2.284   9.119
13211SOL     OW44479   4.667   2.727   9.013
13211SOL    HW144480   4.735   2.666   8.984
13211SOL    HW244481   4.612   2.676   9.072
13212SOL     OW44482   4.682   2.225   8.636
13212SOL    HW144483   4.669   2.194   8.726
13212SOL    HW244484   4.714   2.149   8.588
13213SOL     OW44485   4.762   2.599   7.859
13213SOL    HW144486   4.784   2.576   7.949
13213SOL    HW244487   4.685   2.546   7.838
13214SOL     OW44488   3.800   2.636   8.272
13214SOL    HW144489   3.889   2.649   8.305
13214SOL    HW244490   3.756   2.584   8.340
13215SOL     OW44491   3.832   3.744   9.023
13215SOL    HW144492   3.832   3.729   9.118
13215SOL    HW244493   3.750   3.705   8.993
13216SOL     OW44494   5.485   2.391   9.275
13216SOL    HW144495   5.443   2.470   9.243
13216SOL    HW244496   5.462   2.323   9.212
13217SOL     OW44497   5.121   3.000   7.985
13217SOL    HW144498   5.203   3.001   7.936
13217SOL    HW244499   5.066   3.065   7.941
13218SOL     OW44500   4.200   2.117   8.339
13218SOL    HW144501   4.247   2.044   8.381
13218SOL    HW244502   4.257   2.193   8.354
13219SOL     OW44503   4.734   3.331   7.933
13219SOL    HW144504   4.702   3.402   7.877
13219SOL    HW244505   4.697   3.350   8.019
13220SOL     OW44506   4.084   3.640   8.311
13220SOL    HW144507   4.120   3.552   8.324
13220SOL    HW244508   4.144   3.697   8.359
13221SOL     OW44509   5.484   2.967   8.341
13221SOL    HW144510   5.424   2.988   8.269
13221SOL    HW244511   5.429   2.969   8.419
13222SOL     OW44512   4.952   3.352   8.950
13222SOL    HW144513   4.926   3.298   9.025
13222SOL    HW244514   4.932   3.442   8.977
13223SOL     OW44515   4.041   2.833   7.744
13223SOL    HW144516   4.118   2.823   7.688
13223SOL    HW244517   3.991   2.752   7.730
13224SOL     OW44518   5.215   2.599   8.217
13224SOL    HW144519   5.174   2.528   8.167
13224SOL    HW244520   5.192   2.581   8.308
13225SOL     OW44521   4.182   3.055   9.156
13225SOL    HW144522   4.174   2.960   9.167
13225SOL    HW244523   4.103   3.090   9.198
13226SOL     OW44524   4.831   3.639   7.647
13226SOL    HW144525   4.756   3.614   7.702
13226SOL    HW244526   4.858   3.556   7.607
13227SOL     OW44527   3.920   2.156   8.943
13227SOL    HW144528   3.857   2.085   8.961
13227SOL    HW244529   3.999   2.130   8.990
13228SOL     OW44530   5.300   3.201   7.575
13228SOL    HW144531   5.279   3.159   7.659
13228SOL    HW244532   5.276   3.136   7.509
13229SOL     OW44533   4.151   3.581   7.789
13229SOL    HW144534   4.206   3.636   7.844
13229SOL    HW244535   4.212   3.528   7.738
13230SOL     OW44536   5.139   2.016   7.861
13230SOL    HW144537   5.113   1.960   7.787
13230SOL    HW244538   5.183   1.956   7.921
13231SOL     OW44539   3.959   3.678   8.676
13231SOL    HW144540   4.027   3.611   8.679
13231SOL    HW244541   3.878   3.632   8.699
13232SOL     OW44542   4.811   3.486   8.349
13232SOL    HW144543   4.745   3.495   8.418
13232SOL    HW244544   4.795   3.398   8.313
13233SOL     OW44545   4.133   2.536   7.932
13233SOL    HW144546   4.168   2.447   7.945
13233SOL    HW244547   4.041   2.530   7.958
13234SOL     OW44548   5.179   2.113   9.201
13234SOL    HW144549   5.191   2.135   9.294
13234SOL    HW244550   5.119   2.038   9.202
13235SOL     OW44551   4.390   1.910   7.539
13235SOL    HW144552   4.346   1.870   7.614
13235SOL    HW244553   4.326   1.905   7.468
13236SOL     OW44554   4.559   2.266   9.240
13236SOL    HW144555   4.616   2.199   9.202
13236SOL    HW244556   4.471   2.241   9.212
13237SOL     OW44557   4.617   3.499   8.554
13237SOL    HW144558   4.581   3.412   8.537
13237SOL    HW244559   4.627   3.503   8.649
13238SOL     OW44560   5.114   2.465   8.856
13238SOL    HW144561   5.058   2.403   8.809
13238SOL    HW244562   5.127   2.425   8.942
13239SOL     OW44563   4.541   3.263   8.413
13239SOL    HW144564   4.626   3.236   8.378
13239SOL    HW244565   4.479   3.238   8.345
13240SOL     OW44566   4.730   2.403   8.290
13240SOL    HW144567   4.659   2.396   8.226
13240SOL    HW244568   4.745   2.312   8.318
13241SOL     OW44569   4.259   1.999   7.991
13241SOL    HW144570   4.178   1.976   8.036
13241SOL    HW244571   4.232   2.016   7.901
13242SOL     OW44572   5.221   2.985   7.419
13242SOL    HW144573   5.218   2.931   7.498
13242SOL    HW244574   5.141   2.963   7.372
13243SOL     OW44575   3.997   1.837   7.696
13243SOL    HW144576   4.093   1.827   7.694
13243SOL    HW244577   3.970   1.793   7.777
13244SOL     OW44578   4.656   2.202   7.885
13244SOL    HW144579   4.616   2.116   7.901
13244SOL    HW244580   4.750   2.187   7.893
13245SOL     OW44581   4.844   2.542   8.909
13245SOL    HW144582   4.830   2.463   8.963
13245SOL    HW244583   4.938   2.544   8.894
13246SOL     OW44584   4.207   3.007   8.205
13246SOL    HW144585   4.159   2.989   8.286
13246SOL    HW244586   4.151   2.971   8.136
13247SOL     OW44587   5.005   3.660   8.057
13247SOL    HW144588   5.040   3.742   8.022
13247SOL    HW244589   4.924   3.685   8.101
13248SOL     OW44590   4.816   2.473   7.458
13248SOL    HW144591   4.733   2.520   7.455
13248SOL    HW244592   4.822   2.439   7.547
13249SOL     OW44593   3.850   2.396   8.789
13249SOL    HW144594   3.945   2.396   8.780
13249SOL    HW244595   3.831   2.313   8.834
13250SOL     OW44596   4.299   2.063   8.659
13250SOL    HW144597   4.309   1.968   8.669
13250SOL    HW244598   4.205   2.079   8.668
13251SOL     OW44599   4.559   2.381   8.078
13251SOL    HW144600   4.464   2.383   8.068
13251SOL    HW244601   4.587   2.313   8.017
13252SOL     OW44602   4.770   1.873   8.208
13252SOL    HW144603   4.717   1.807   8.164
13252SOL    HW244604   4.767   1.849   8.300
13253SOL     OW44605   5.125   3.044   8.277
13253SOL    HW144606   5.087   2.969   8.322
13253SOL    HW244607   5.116   3.024   8.184
13254SOL     OW44608   5.139   2.506   8.463
13254SOL    HW144609   5.086   2.427   8.453
13254SOL    HW244610   5.201   2.484   8.532
13255SOL     OW44611   5.585   2.660   7.842
13255SOL    HW144612   5.615   2.615   7.920
13255SOL    HW244613   5.549   2.591   7.786
13256SOL     OW44614   4.165   3.287   7.653
13256SOL    HW144615   4.080   3.285   7.696
13256SOL    HW244616   4.157   3.226   7.580
13257SOL     OW44617   5.444   3.110   8.073
13257SOL    HW144618   5.537   3.101   8.095
13257SOL    HW244619   5.419   3.196   8.107
13258SOL     OW44620   5.126   2.410   7.532
13258SOL    HW144621   5.053   2.414   7.594
13258SOL    HW244622   5.168   2.326   7.551
13259SOL     OW44623   4.247   2.133   7.736
13259SOL    HW144624   4.305   2.081   7.681
13259SOL    HW244625   4.200   2.190   7.676
13260SOL     OW44626   5.464   3.149   9.060
13260SOL    HW144627   5.526   3.077   9.072
13260SOL    HW244628   5.457   3.189   9.147
13261SOL     OW44629   4.778   3.236   8.764
13261SOL    HW144630   4.695   3.219   8.808
13261SOL    HW244631   4.836   3.267   8.834
13262SOL     OW44632   5.321   3.628   9.096
13262SOL    HW144633   5.291   3.603   9.008
13262SOL    HW244634   5.408   3.589   9.103
13263SOL     OW44635   4.836   3.066   8.555
13263SOL    HW144636   4.815   3.115   8.635
13263SOL    HW244637   4.760   3.010   8.540
13264SOL     OW44638   5.325   2.988   8.561
13264SOL    HW144639   5.352   3.023   8.646
13264SOL    HW244640   5.233   2.965   8.573
13265SOL     OW44641   4.670   2.994   9.080
13265SOL    HW144642   4.598   3.002   9.142
13265SOL    HW244643   4.685   2.900   9.071
13266SOL     OW44644   4.440   2.909   7.830
13266SOL    HW144645   4.430   2.880   7.921
13266SOL    HW244646   4.524   2.872   7.802
13267SOL     OW44647   4.113   2.673   8.725
13267SOL    HW144648   4.192   2.694   8.775
13267SOL    HW244649   4.109   2.577   8.726
13268SOL     OW44650   4.941   2.316   8.697
13268SOL    HW144651   4.961   2.245   8.758
13268SOL    HW244652   4.851   2.297   8.667
13269SOL     OW44653   3.821   3.436   8.759
13269SOL    HW144654   3.792   3.424   8.850
13269SOL    HW244655   3.917   3.433   8.764
13270SOL     OW44656   4.044   2.882   8.016
13270SOL    HW144657   4.050   2.873   7.921
13270SOL    HW244658   4.040   2.792   8.048
13271SOL     OW44659   4.296   2.391   8.350
13271SOL    HW144660   4.311   2.454   8.280
13271SOL    HW244661   4.373   2.398   8.406
13272SOL     OW44662   4.982   3.223   7.854
13272SOL    HW144663   5.040   3.290   7.891
13272SOL    HW244664   4.895   3.244   7.888
13273SOL     OW44665   4.980   3.351   8.615
13273SOL    HW144666   5.051   3.323   8.673
13273SOL    HW244667   4.903   3.305   8.647
13274SOL     OW44668   5.357   2.472   7.965
13274SOL    HW144669   5.318   2.385   7.953
13274SOL    HW244670   5.385   2.498   7.877
13275SOL     OW44671   4.094   3.435   8.696
13275SOL    HW144672   4.086   3.358   8.640
13275SOL    HW244673   4.186   3.435   8.724
13276SOL     OW44674   5.339   2.598   9.140
13276SOL    HW144675   5.279   2.524   9.127
13276SOL    HW244676   5.390   2.601   9.059
13277SOL     OW44677   4.752   2.083   9.168
13277SOL    HW144678   4.772   2.044   9.083
13277SOL    HW244679   4.782   2.018   9.231
13278SOL     OW44680   4.271   1.907   9.191
13278SOL    HW144681   4.199   1.964   9.167
13278SOL    HW244682   4.350   1.956   9.165
13279SOL     OW44683   4.255   2.789   8.514
13279SOL    HW144684   4.349   2.788   8.532
13279SOL    HW244685   4.215   2.750   8.592
13280SOL     OW44686   5.010   2.757   8.454
13280SOL    HW144687   4.919   2.728   8.447
13280SOL    HW244688   5.060   2.677   8.471
13281SOL     OW44689   4.926   2.422   7.722
13281SOL    HW144690   4.937   2.343   7.775
13281SOL    HW244691   4.861   2.474   7.769
13282SOL     OW44692   4.030   2.104   8.692
13282SOL    HW144693   3.999   2.126   8.780
13282SOL    HW244694   4.004   2.013   8.679
13283SOL     OW44695   3.828   3.159   8.697
13283SOL    HW144696   3.820   3.114   8.781
13283SOL    HW244697   3.808   3.251   8.717
13284SOL     OW44698   4.514   2.411   8.525
13284SOL    HW144699   4.571   2.336   8.541
13284SOL    HW244700   4.557   2.483   8.571
13285SOL     OW44701   5.421   2.839   9.274
13285SOL    HW144702   5.393   2.751   9.250
13285SOL    HW244703   5.377   2.855   9.358
13286SOL     OW44704   4.031   1.970   8.186
13286SOL    HW144705   4.088   2.031   8.232
13286SOL    HW244706   4.057   1.883   8.217
13287SOL     OW44707   5.327   2.215   7.831
13287SOL    HW144708   5.400   2.167   7.871
13287SOL    HW244709   5.250   2.162   7.853
13288SOL     OW44710   4.751   2.636   8.439
13288SOL    HW144711   4.728   2.618   8.530
13288SOL    HW244712   4.744   2.551   8.396
13289SOL     OW44713   4.626   3.414   9.073
13289SOL    HW144714   4.600   3.339   9.019
13289SOL    HW244715   4.696   3.380   9.129
13290SOL     OW44716   5.569   3.506   9.073
13290SOL    HW144717   5.598   3.455   8.997
13290SOL    HW244718   5.614   3.467   9.148
13291SOL     OW44719   4.115   2.779   9.235
13291SOL    HW144720   4.098   2.795   9.328
13291SOL    HW244721   4.174   2.704   9.235
13292SOL     OW44722   5.216   2.149   7.575
13292SOL    HW144723   5.158   2.073   7.587
13292SOL    HW244724   5.262   2.157   7.659
13293SOL     OW44725   5.009   2.661   7.401
13293SOL    HW144726   5.081   2.612   7.440
13293SOL    HW244727   4.935   2.600   7.403
13294SOL     OW44728   4.799   3.207   8.318
13294SOL    HW144729   4.806   3.141   8.249
13294SOL    HW244730   4.831   3.164   8.397
13295SOL     OW44731   4.052   2.664   8.375
13295SOL    HW144732   4.138   2.692   8.407
13295SOL    HW244733   4.050   2.570   8.392
13296SOL     OW44734   4.026   2.386   8.417
13296SOL    HW144735   3.986   2.299   8.408
13296SOL    HW244736   4.117   2.374   8.392
13297SOL     OW44737   4.852   2.327   9.082
13297SOL    HW144738   4.842   2.372   9.166
13297SOL    HW244739   4.811   2.242   9.096
13298SOL     OW44740   5.015   2.170   8.917
13298SOL    HW144741   4.974   2.229   8.980
13298SOL    HW244742   4.962   2.090   8.920
13299SOL     OW44743   3.721   3.205   7.652
13299SOL    HW144744   3.627   3.215   7.632
13299SOL    HW244745   3.729   3.116   7.685
13300SOL     OW44746   3.811   3.642   8.383
13300SOL    HW144747   3.778   3.561   8.344
13300SOL    HW244748   3.906   3.637   8.372
13301SOL     OW44749   4.226   3.405   8.343
13301SOL    HW144750   4.303   3.457   8.366
13301SOL    HW244751   4.259   3.342   8.279
13302SOL     OW44752   4.661   2.584   8.704
13302SOL    HW144753   4.741   2.561   8.752
13302SOL    HW244754   4.590   2.557   8.762
13303SOL     OW44755   3.791   2.491   8.537
13303SOL    HW144756   3.867   2.452   8.494
13303SOL    HW244757   3.803   2.469   8.630
13304SOL     OW44758   5.120   2.775   9.085
13304SOL    HW144759   5.049   2.740   9.140
13304SOL    HW244760   5.199   2.730   9.116
13305SOL     OW44761   4.570   2.434   7.756
13305SOL    HW144762   4.590   2.347   7.791
13305SOL    HW244763   4.476   2.431   7.738
13306SOL     OW44764   5.321   2.448   8.671
13306SOL    HW144765   5.253   2.447   8.737
13306SOL    HW244766   5.379   2.376   8.694
13307SOL     OW44767   3.956   3.402   9.181
13307SOL    HW144768   3.917   3.434   9.262
13307SOL    HW244769   3.971   3.309   9.197
13308SOL     OW44770   4.369   2.309   8.741
13308SOL    HW144771   4.360   2.214   8.736
13308SOL    HW244772   4.419   2.333   8.663
13309SOL     OW44773   4.686   3.565   8.823
13309SOL    HW144774   4.618   3.524   8.877
13309SOL    HW244775   4.760   3.577   8.882
13310SOL     OW44776   4.124   2.333   7.581
13310SOL    HW144777   4.188   2.398   7.609
13310SOL    HW244778   4.043   2.383   7.567
13311SOL     OW44779   3.883   2.997   8.923
13311SOL    HW144780   3.872   2.962   9.011
13311SOL    HW244781   3.874   2.921   8.866
13312SOL     OW44782   5.066   2.962   8.687
13312SOL    HW144783   5.069   2.867   8.678
13312SOL    HW244784   4.992   2.989   8.632
13313SOL     OW44785   5.015   2.699   7.741
13313SOL    HW144786   4.957   2.702   7.817
13313SOL    HW244787   5.019   2.606   7.718
13314SOL     OW44788   5.431   3.578   8.554
13314SOL    HW144789   5.518   3.585   8.515
13314SOL    HW244790   5.417   3.484   8.566
13315SOL     OW44791   4.981   3.627   8.617
13315SOL    HW144792   5.047   3.665   8.675
13315SOL    HW244793   4.956   3.544   8.658
13316SOL     OW44794   3.798   3.202   8.422
13316SOL    HW144795   3.782   3.188   8.516
13316SOL    HW244796   3.743   3.137   8.379
13317SOL     OW44797   4.373   3.492   9.162
13317SOL    HW144798   4.361   3.587   9.160
13317SOL    HW244799   4.465   3.479   9.142
13318SOL     OW44800   5.497   2.039   7.954
13318SOL    HW144801   5.566   2.005   7.897
13318SOL    HW244802   5.444   1.963   7.976
13319SOL     OW44803   5.134   3.438   7.960
13319SOL    HW144804   5.182   3.493   7.898
13319SOL    HW244805   5.075   3.499   8.005
13320SOL     OW44806   3.862   3.693   9.290
13320SOL    HW144807   3.832   3.611   9.328
13320SOL    HW244808   3.924   3.728   9.355
13321SOL     OW44809   5.015   2.789   8.129
13321SOL    HW144810   5.087   2.739   8.168
13321SOL    HW244811   5.058   2.849   8.069
13322SOL     OW44812   4.557   3.193   8.925
13322SOL    HW144813   4.592   3.117   8.972
13322SOL    HW244814   4.464   3.194   8.948
13323SOL     OW44815   4.376   3.463   7.638
13323SOL    HW144816   4.446   3.419   7.588
13323SOL    HW244817   4.305   3.399   7.640
13324SOL     OW44818   5.262   3.616   8.788
13324SOL    HW144819   5.327   3.613   8.717
13324SOL    HW244820   5.265   3.707   8.819
13325SOL     OW44821   5.581   2.041   8.379
13325SOL    HW144822   5.602   1.950   8.361
13325SOL    HW244823   5.485   2.046   8.370
13326SOL     OW44824   4.938   3.417   7.514
13326SOL    HW144825   4.927   3.329   7.550
13326SOL    HW244826   4.892   3.413   7.429
13327SOL     OW44827   4.617   2.853   8.767
13327SOL    HW144828   4.640   2.767   8.733
13327SOL    HW244829   4.641   2.849   8.860
13328SOL     OW44830   4.680   2.830   7.731
13328SOL    HW144831   4.745   2.844   7.662
13328SOL    HW244832   4.708   2.750   7.775
13329SOL     OW44833   5.211   3.463   7.536
13329SOL    HW144834   5.117   3.448   7.528
13329SOL    HW244835   5.249   3.375   7.538
13330SOL     OW44836   4.117   3.112   8.816
13330SOL    HW144837   4.181   3.161   8.867
13330SOL    HW244838   4.054   3.079   8.881
13331SOL     OW44839   5.337   3.108   8.810
13331SOL    HW144840   5.399   3.110   8.883
13331SOL    HW244841   5.277   3.180   8.828
13332SOL     OW44842   4.807   2.977   8.164
13332SOL    HW144843   4.734   2.928   8.202
13332SOL    HW244844   4.875   2.912   8.151
13333SOL     OW44845   4.785   2.128   8.323
13333SOL    HW144846   4.778   2.058   8.258
13333SOL    HW244847   4.783   2.083   8.408
13334SOL     OW44848   4.305   3.293   7.901
13334SOL    HW144849   4.389   3.258   7.870
13334SOL    HW244850   4.246   3.281   7.827
13335SOL     OW44851   5.457   2.238   8.782
13335SOL    HW144852   5.519   2.220   8.853
13335SOL    HW244853   5.392   2.168   8.788
13336SOL     OW44854   3.934   3.292   7.811
13336SOL    HW144855   3.859   3.270   7.755
13336SOL    HW244856   3.931   3.229   7.882
13337SOL     OW44857   3.844   2.895   9.175
13337SOL    HW144858   3.766   2.871   9.225
13337SOL    HW244859   3.909   2.830   9.201
13338SOL     OW44860   3.767   2.086   7.448
13338SOL    HW144861   3.777   1.992   7.435
13338SOL    HW244862   3.698   2.112   7.388
13339SOL     OW44863   5.168   2.720   8.770
13339SOL    HW144864   5.141   2.635   8.804
13339SOL    HW244865   5.258   2.707   8.741
13340SOL     OW44866   3.777   2.000   7.717
13340SOL    HW144867   3.766   2.047   7.635
13340SOL    HW244868   3.864   1.962   7.712
13341SOL     OW44869   4.906   3.152   7.589
13341SOL    HW144870   4.902   3.057   7.580
13341SOL    HW244871   4.931   3.167   7.680
13342SOL     OW44872   4.361   2.743   8.807
13342SOL    HW144873   4.436   2.803   8.810
13342SOL    HW244874   4.394   2.662   8.846
13343SOL     OW44875   5.211   3.623   8.389
13343SOL    HW144876   5.221   3.715   8.364
13343SOL    HW244877   5.286   3.605   8.445
13344SOL     OW44878   4.505   2.535   9.170
13344SOL    HW144879   4.420   2.549   9.211
13344SOL    HW244880   4.530   2.447   9.196
13345SOL     OW44881   5.190   3.090   9.061
13345SOL    HW144882   5.162   3.079   9.152
13345SOL    HW244883   5.282   3.116   9.068
13346SOL     OW44884   4.079   3.615   9.046
13346SOL    HW144885   3.996   3.660   9.027
13346SOL    HW244886   4.053   3.535   9.091
13347SOL     OW44887   5.436   2.697   8.694
13347SOL    HW144888   5.420   2.604   8.679
13347SOL    HW244889   5.474   2.729   8.612
13348SOL     OW44890   4.951   2.214   7.903
13348SOL    HW144891   5.001   2.134   7.885
13348SOL    HW244892   4.983   2.244   7.988
13349SOL     OW44893   4.314   2.583   8.145
13349SOL    HW144894   4.360   2.664   8.126
13349SOL    HW244895   4.255   2.570   8.071
13350SOL     OW44896   5.422   2.185   9.103
13350SOL    HW144897   5.396   2.158   9.015
13350SOL    HW244898   5.352   2.152   9.160
13351SOL     OW44899   5.402   2.835   8.931
13351SOL    HW144900   5.478   2.854   8.986
13351SOL    HW244901   5.438   2.788   8.856
13352SOL     OW44902   4.541   3.251   7.544
13352SOL    HW144903   4.537   3.224   7.635
13352SOL    HW244904   4.634   3.247   7.521
13353SOL     OW44905   4.443   3.584   8.352
13353SOL    HW144906   4.396   3.663   8.377
13353SOL    HW244907   4.498   3.564   8.428
13354SOL     OW44908   4.612   2.836   8.302
13354SOL    HW144909   4.655   2.759   8.338
13354SOL    HW244910   4.589   2.888   8.379
13355SOL     OW44911   4.909   2.876   7.557
13355SOL    HW144912   4.914   2.819   7.481
13355SOL    HW244913   4.952   2.827   7.627
13356SOL     OW44914   5.580   3.412   8.250
13356SOL    HW144915   5.493   3.391   8.216
13356SOL    HW244916   5.606   3.334   8.299
13357SOL     OW44917   3.938   3.139   9.254
13357SOL    HW144918   3.901   3.057   9.220
13357SOL    HW244919   3.891   3.155   9.336
13358SOL     OW44920   3.889   3.117   8.020
13358SOL    HW144921   3.798   3.090   8.030
13358SOL    HW244922   3.938   3.035   8.024
13359SOL     OW44923   4.294   3.265   9.007
13359SOL    HW144924   4.258   3.195   9.061
13359SOL    HW244925   4.305   3.339   9.067
13360SOL     OW44926   5.598   1.996   8.658
13360SOL    HW144927   5.600   1.902   8.677
13360SOL    HW244928   5.572   2.000   8.566
13361SOL     OW44929   4.255   2.293   7.966
13361SOL    HW144930   4.259   2.239   7.887
13361SOL    HW244931   4.258   2.229   8.038
13362SOL     OW44932   5.362   3.314   8.586
13362SOL    HW144933   5.304   3.305   8.661
13362SOL    HW244934   5.439   3.261   8.607
13363SOL     OW44935   4.114   2.399   8.718
13363SOL    HW144936   4.201   2.369   8.745
13363SOL    HW244937   4.092   2.343   8.643
13364SOL     OW44938   4.565   3.427   8.142
13364SOL    HW144939   4.532   3.492   8.204
13364SOL    HW244940   4.501   3.355   8.147
13365SOL     OW44941   5.073   2.044   8.536
13365SOL    HW144942   5.071   1.955   8.501
13365SOL    HW244943   4.992   2.052   8.586
13366SOL     OW44944   4.532   3.171   7.803
13366SOL    HW144945   4.507   3.079   7.817
13366SOL    HW244946   4.609   3.184   7.859
13367SOL     OW44947   4.358   3.435   8.781
13367SOL    HW144948   4.349   3.522   8.817
13367SOL    HW244949   4.350   3.376   8.856
13368SOL     OW44950   5.063   1.915   7.607
13368SOL    HW144951   5.115   1.846   7.567
13368SOL    HW244952   4.974   1.879   7.612
13369SOL     OW44953   5.082   2.365   8.128
13369SOL    HW144954   5.006   2.420   8.108
13369SOL    HW244955   5.059   2.322   8.210
13370SOL     OW44956   5.305   2.084   8.375
13370SOL    HW144957   5.244   2.086   8.449
13370SOL    HW244958   5.293   1.997   8.336
13371SOL     OW44959   3.791   2.953   7.729
13371SOL    HW144960   3.884   2.930   7.732
13371SOL    HW244961   3.746   2.870   7.746
13372SOL     OW44962   4.611   3.546   7.795
13372SOL    HW144963   4.524   3.518   7.765
13372SOL    HW244964   4.593   3.602   7.871
13373SOL     OW44965   3.869   2.569   9.449
13373SOL    HW144966   3.773   2.566   9.446
13373SOL    HW244967   3.894   2.500   9.510
13374SOL     OW44968   5.468   2.472   9.540
13374SOL    HW144969   5.476   2.444   9.449
13374SOL    HW244970   5.443   2.393   9.588
13375SOL     OW44971   3.927   3.618   9.742
13375SOL    HW144972   3.950   3.677   9.813
13375SOL    HW244973   4.011   3.587   9.708
13376SOL     OW44974   3.984   3.233   9.840
13376SOL    HW144975   3.950   3.309   9.887
13376SOL    HW244976   3.945   3.158   9.885
13377SOL     OW44977   4.328   2.901   9.426
13377SOL    HW144978   4.395   2.925   9.363
13377SOL    HW244979   4.341   2.807   9.440
13378SOL     OW44980   3.823   2.498   9.878
13378SOL    HW144981   3.786   2.410   9.872
13378SOL    HW244982   3.853   2.505   9.968
13379SOL     OW44983   5.532   3.597   9.586
13379SOL    HW144984   5.587   3.574   9.660
13379SOL    HW244985   5.545   3.691   9.575
13380SOL     OW44986   3.809   3.449   9.413
13380SOL    HW144987   3.803   3.357   9.440
13380SOL    HW244988   3.760   3.497   9.480
13381SOL     OW44989   5.357   2.734   9.921
13381SOL    HW144990   5.439   2.720   9.968
13381SOL    HW244991   5.373   2.810   9.865
13382SOL     OW44992   5.412   2.954   9.754
13382SOL    HW144993   5.498   2.950   9.712
13382SOL    HW244994   5.422   3.021   9.822
13383SOL     OW44995   4.352   3.223   0.018
13383SOL    HW144996   4.299   3.144   0.023
13383SOL    HW244997   4.321   3.267   9.939
13384SOL     OW44998   4.552   1.941   9.894
13384SOL    HW144999   4.603   1.998   9.837
13384SOL    HW245000   4.461   1.968   9.879
13385SOL     OW45001   5.266   2.892   9.509
13385SOL    HW145002   5.190   2.839   9.532
13385SOL    HW245003   5.308   2.912   9.593
13386SOL     OW45004   4.275   2.684   9.602
13386SOL    HW145005   4.294   2.602   9.555
13386SOL    HW245006   4.307   2.668   9.691
13387SOL     OW45007   5.272   3.493   9.594
13387SOL    HW145008   5.362   3.524   9.604
13387SOL    HW245009   5.261   3.480   9.499
13388SOL     OW45010   4.728   2.569   9.729
13388SOL    HW145011   4.746   2.549   9.821
13388SOL    HW245012   4.655   2.512   9.706
13389SOL     OW45013   3.788   2.773   0.075
13389SOL    HW145014   3.847   2.698   0.063
13389SOL    HW245015   3.755   2.762   0.165
13390SOL     OW45016   4.561   2.155   9.497
13390SOL    HW145017   4.562   2.191   9.409
13390SOL    HW245018   4.501   2.080   9.492
13391SOL     OW45019   5.046   2.980   9.765
13391SOL    HW145020   5.103   2.993   9.841
13391SOL    HW245021   5.019   3.068   9.740
13392SOL     OW45022   4.700   3.305   9.781
13392SOL    HW145023   4.665   3.384   9.739
13392SOL    HW245024   4.687   3.320   9.875
13393SOL     OW45025   4.012   3.643   0.161
13393SOL    HW145026   3.951   3.570   0.146
13393SOL    HW245027   4.079   3.607   0.219
13394SOL     OW45028   4.037   2.775   9.507
13394SOL    HW145029   4.109   2.721   9.540
13394SOL    HW245030   3.969   2.712   9.482
13395SOL     OW45031   5.388   3.233   9.315
13395SOL    HW145032   5.349   3.320   9.324
13395SOL    HW245033   5.315   3.173   9.329
13396SOL     OW45034   4.188   3.572   9.635
13396SOL    HW145035   4.214   3.514   9.707
13396SOL    HW245036   4.245   3.547   9.563
13397SOL     OW45037   5.148   1.991   9.716
13397SOL    HW145038   5.192   1.924   9.662
13397SOL    HW245039   5.119   1.943   9.793
13398SOL     OW45040   4.078   2.598   9.835
13398SOL    HW145041   4.128   2.517   9.834
13398SOL    HW245042   3.986   2.569   9.840
13399SOL     OW45043   4.333   1.986   9.461
13399SOL    HW145044   4.311   1.913   9.519
13399SOL    HW245045   4.321   1.950   9.373
13400SOL     OW45046   4.290   2.035   9.833
13400SOL    HW145047   4.242   1.955   9.811
13400SOL    HW245048   4.285   2.089   9.754
13401SOL     OW45049   5.159   3.080   9.336
13401SOL    HW145050   5.192   3.010   9.392
13401SOL    HW245051   5.074   3.104   9.375
13402SOL     OW45052   4.032   1.953   9.475
13402SOL    HW145053   4.106   2.006   9.446
13402SOL    HW245054   4.071   1.888   9.533
13403SOL     OW45055   4.694   2.125   9.740
13403SOL    HW145056   4.663   2.121   9.649
13403SOL    HW245057   4.788   2.139   9.732
13404SOL     OW45058   4.175   3.018   0.052
13404SOL    HW145059   4.162   2.956   0.124
13404SOL    HW245060   4.142   2.972   9.975
13405SOL     OW45061   4.989   3.716   9.833
13405SOL    HW145062   5.004   3.765   9.752
13405SOL    HW245063   4.897   3.692   9.830
13406SOL     OW45064   4.770   2.437   9.325
13406SOL    HW145065   4.694   2.379   9.319
13406SOL    HW245066   4.806   2.420   9.412
13407SOL     OW45067   4.574   2.304   9.912
13407SOL    HW145068   4.512   2.344   9.851
13407SOL    HW245069   4.616   2.234   9.861
13408SOL     OW45070   5.652   2.672   9.587
13408SOL    HW145071   5.686   2.642   9.671
13408SOL    HW245072   5.581   2.611   9.567
13409SOL     OW45073   5.099   2.418   9.384
13409SOL    HW145074   5.030   2.421   9.450
13409SOL    HW245075   5.155   2.345   9.410
13410SOL     OW45076   4.278   2.213   9.612
13410SOL    HW145077   4.303   2.143   9.552
13410SOL    HW245078   4.293   2.294   9.562
13411SOL     OW45079   4.417   2.925   9.724
13411SOL    HW145080   4.394   2.864   9.795
13411SOL    HW245081   4.490   2.884   9.679
13412SOL     OW45082   4.067   2.882   9.813
13412SOL    HW145083   3.984   2.917   9.846
13412SOL    HW245084   4.061   2.788   9.827
13413SOL     OW45085   4.949   3.235   9.685
13413SOL    HW145086   5.004   3.305   9.719
13413SOL    HW245087   4.862   3.252   9.723
13414SOL     OW45088   5.287   2.512   9.765
13414SOL    HW145089   5.305   2.583   9.828
13414SOL    HW245090   5.342   2.533   9.689
13415SOL     OW45091   4.896   2.410   9.571
13415SOL    HW145092   4.921   2.335   9.626
13415SOL    HW245093   4.846   2.467   9.630
13416SOL     OW45094   4.052   1.914   9.980
13416SOL    HW145095   4.117   1.983   9.995
13416SOL    HW245096   4.058   1.858   0.057
13417SOL     OW45097   5.372   2.257   9.683
13417SOL    HW145098   5.421   2.201   9.744
13417SOL    HW245099   5.327   2.320   9.740
13418SOL     OW45100   5.222   2.183   9.464
13418SOL    HW145101   5.173   2.102   9.481
13418SOL    HW245102   5.273   2.197   9.543
13419SOL     OW45103   4.962   2.632   9.261
13419SOL    HW145104   5.025   2.579   9.310
13419SOL    HW245105   4.878   2.588   9.272
13420SOL     OW45106   3.793   3.169   9.482
13420SOL    HW145107   3.703   3.187   9.454
13420SOL    HW245108   3.786   3.086   9.530
13421SOL     OW45109   4.529   2.403   9.630
13421SOL    HW145110   4.548   2.314   9.600
13421SOL    HW245111   4.455   2.431   9.576
13422SOL     OW45112   5.022   2.773   9.588
13422SOL    HW145113   5.024   2.838   9.659
13422SOL    HW245114   5.019   2.689   9.633
13423SOL     OW45115   5.550   2.101   9.833
13423SOL    HW145116   5.603   2.079   9.757
13423SOL    HW245117   5.523   2.017   9.869
13424SOL     OW45118   5.077   3.456   9.789
13424SOL    HW145119   5.154   3.461   9.732
13424SOL    HW245120   5.059   3.547   9.812
13425SOL     OW45121   4.373   3.481   9.446
13425SOL    HW145122   4.351   3.492   9.354
13425SOL    HW245123   4.427   3.402   9.449
13426SOL     OW45124   4.954   3.458   9.339
13426SOL    HW145125   4.936   3.366   9.363
13426SOL    HW245126   4.931   3.508   9.418
13427SOL     OW45127   4.635   2.801   9.610
13427SOL    HW145128   4.712   2.845   9.574
13427SOL    HW245129   4.670   2.725   9.655
13428SOL     OW45130   5.234   3.468   9.315
13428SOL    HW145131   5.138   3.465   9.316
13428SOL    HW245132   5.255   3.528   9.244
13429SOL     OW45133   4.269   3.337   9.771
13429SOL    HW145134   4.340   3.293   9.724
13429SOL    HW245135   4.191   3.287   9.750
13430SOL     OW45136   4.069   3.121   9.608
13430SOL    HW145137   3.998   3.138   9.547
13430SOL    HW245138   4.038   3.155   9.692
13431SOL     OW45139   3.802   2.164   9.277
13431SOL    HW145140   3.809   2.069   9.289
13431SOL    HW245141   3.722   2.175   9.225
13432SOL     OW45142   3.797   1.959   9.652
13432SOL    HW145143   3.846   1.993   9.577
13432SOL    HW245144   3.860   1.903   9.697
13433SOL     OW45145   4.897   3.173   9.421
13433SOL    HW145146   4.869   3.082   9.424
13433SOL    HW245147   4.918   3.194   9.512
13434SOL     OW45148   4.966   2.197   9.738
13434SOL    HW145149   5.028   2.129   9.713
13434SOL    HW245150   4.993   2.224   9.826
13435SOL     OW45151   4.326   2.725   9.884
13435SOL    HW145152   4.355   2.742   9.973
13435SOL    HW245153   4.246   2.673   9.894
13436SOL     OW45154   4.535   3.254   9.410
13436SOL    HW145155   4.512   3.223   9.498
13436SOL    HW245156   4.631   3.252   9.409
13437SOL     OW45157   4.836   2.906   9.424
13437SOL    HW145158   4.782   2.849   9.369
13437SOL    HW245159   4.906   2.848   9.457
13438SOL     OW45160   3.863   3.016   9.970
13438SOL    HW145161   3.834   3.075   0.040
13438SOL    HW245162   3.833   2.929   9.999
13439SOL     OW45163   4.202   2.354   9.838
13439SOL    HW145164   4.224   2.305   9.758
13439SOL    HW245165   4.221   2.293   9.909
13440SOL     OW45166   4.478   3.184   9.666
13440SOL    HW145167   4.463   3.094   9.693
13440SOL    HW245168   4.557   3.210   9.713
13441SOL     OW45169   5.076   1.948   9.408
13441SOL    HW145170   5.129   1.873   9.380
13441SOL    HW245171   5.001   1.909   9.453
13442SOL     OW45172   3.806   2.919   9.600
13442SOL    HW145173   3.888   2.878   9.573
13442SOL    HW245174   3.754   2.847   9.636
13443SOL     OW45175   4.566   3.514   9.669
13443SOL    HW145176   4.498   3.528   9.604
13443SOL    HW245177   4.549   3.581   9.736
13444SOL     OW45178   3.893   4.319   0.154
13444SOL    HW145179   3.810   4.294   0.195
13444SOL    HW245180   3.872   4.327   0.061
13445SOL     OW45181   3.896   4.059   1.061
13445SOL    HW145182   3.958   4.014   1.117
13445SOL    HW245183   3.858   3.990   1.006
13446SOL     OW45184   3.717   4.099   0.634
13446SOL    HW145185   3.626   4.131   0.637
13446SOL    HW245186   3.708   4.004   0.621
13447SOL     OW45187   4.312   5.030   1.218
13447SOL    HW145188   4.248   5.042   1.147
13447SOL    HW245189   4.321   5.117   1.256
13448SOL     OW45190   5.342   5.226   0.690
13448SOL    HW145191   5.286   5.218   0.768
13448SOL    HW245192   5.281   5.246   0.619
13449SOL     OW45193   4.801   4.495   0.658
13449SOL    HW145194   4.872   4.561   0.659
13449SOL    HW245195   4.768   4.495   0.748
13450SOL     OW45196   5.511   4.264   0.217
13450SOL    HW145197   5.526   4.232   0.128
13450SOL    HW245198   5.455   4.199   0.257
13451SOL     OW45199   4.464   4.831   1.087
13451SOL    HW145200   4.398   4.877   1.139
13451SOL    HW245201   4.518   4.901   1.050
13452SOL     OW45202   4.597   4.463   1.824
13452SOL    HW145203   4.522   4.516   1.850
13452SOL    HW245204   4.629   4.506   1.744
13453SOL     OW45205   4.414   4.659   0.633
13453SOL    HW145206   4.477   4.686   0.700
13453SOL    HW245207   4.337   4.712   0.649
13454SOL     OW45208   4.458   4.888   1.842
13454SOL    HW145209   4.509   4.961   1.876
13454SOL    HW245210   4.397   4.927   1.781
13455SOL     OW45211   4.120   5.131   1.039
13455SOL    HW145212   4.079   5.077   0.972
13455SOL    HW245213   4.173   5.194   0.990
13456SOL     OW45214   5.159   5.220   1.365
13456SOL    HW145215   5.220   5.293   1.376
13456SOL    HW245216   5.087   5.241   1.425
13457SOL     OW45217   4.178   4.109   1.470
13457SOL    HW145218   4.253   4.049   1.476
13457SOL    HW245219   4.102   4.054   1.490
13458SOL     OW45220   5.324   4.252   0.734
13458SOL    HW145221   5.299   4.272   0.643
13458SOL    HW245222   5.415   4.223   0.728
13459SOL     OW45223   3.964   5.447   0.481
13459SOL    HW145224   3.956   5.526   0.534
13459SOL    HW245225   4.057   5.442   0.459
13460SOL     OW45226   4.868   5.078   1.712
13460SOL    HW145227   4.871   5.043   1.801
13460SOL    HW245228   4.866   5.000   1.655
13461SOL     OW45229   3.884   5.181   0.477
13461SOL    HW145230   3.906   5.272   0.495
13461SOL    HW245231   3.881   5.139   0.563
13462SOL     OW45232   3.992   4.815   0.872
13462SOL    HW145233   3.998   4.726   0.906
13462SOL    HW245234   3.935   4.860   0.933
13463SOL     OW45235   4.302   5.467   1.532
13463SOL    HW145236   4.207   5.475   1.535
13463SOL    HW245237   4.333   5.556   1.523
13464SOL     OW45238   4.298   4.712   0.184
13464SOL    HW145239   4.289   4.787   0.126
13464SOL    HW245240   4.365   4.738   0.247
13465SOL     OW45241   5.267   3.859   1.332
13465SOL    HW145242   5.356   3.873   1.299
13465SOL    HW245243   5.267   3.900   1.418
13466SOL     OW45244   3.846   4.355   0.562
13466SOL    HW145245   3.804   4.270   0.577
13466SOL    HW245246   3.832   4.404   0.643
13467SOL     OW45247   5.588   5.439   0.276
13467SOL    HW145248   5.650   5.410   0.343
13467SOL    HW245249   5.610   5.531   0.261
13468SOL     OW45250   3.769   5.257   0.101
13468SOL    HW145251   3.683   5.215   0.097
13468SOL    HW245252   3.759   5.324   0.169
13469SOL     OW45253   5.364   4.609   0.576
13469SOL    HW145254   5.429   4.559   0.528
13469SOL    HW245255   5.357   4.692   0.528
13470SOL     OW45256   5.375   4.847   0.434
13470SOL    HW145257   5.455   4.831   0.385
13470SOL    HW245258   5.403   4.900   0.509
13471SOL     OW45259   3.810   4.448   1.515
13471SOL    HW145260   3.888   4.499   1.490
13471SOL    HW245261   3.739   4.512   1.516
13472SOL     OW45262   4.329   5.009   0.826
13472SOL    HW145263   4.288   4.936   0.780
13472SOL    HW245264   4.339   5.077   0.759
13473SOL     OW45265   4.973   4.913   1.446
13473SOL    HW145266   4.989   4.856   1.370
13473SOL    HW245267   5.057   4.915   1.492
13474SOL     OW45268   4.547   3.808   0.523
13474SOL    HW145269   4.580   3.889   0.483
13474SOL    HW245270   4.452   3.821   0.527
13475SOL     OW45271   3.922   4.671   1.311
13475SOL    HW145272   4.011   4.640   1.297
13475SOL    HW245273   3.878   4.659   1.227
13476SOL     OW45274   5.222   4.756   0.204
13476SOL    HW145275   5.275   4.714   0.136
13476SOL    HW245276   5.286   4.804   0.257
13477SOL     OW45277   4.886   5.522   1.644
13477SOL    HW145278   4.888   5.597   1.584
13477SOL    HW245279   4.898   5.446   1.587
13478SOL     OW45280   4.047   4.002   1.867
13478SOL    HW145281   4.081   4.079   1.912
13478SOL    HW245282   3.952   4.010   1.873
13479SOL     OW45283   5.174   5.159   0.901
13479SOL    HW145284   5.116   5.169   0.976
13479SOL    HW245285   5.178   5.065   0.886
13480SOL     OW45286   5.418   5.490   0.541
13480SOL    HW145287   5.384   5.457   0.458
13480SOL    HW245288   5.422   5.413   0.598
13481SOL     OW45289   4.306   4.447   0.267
13481SOL    HW145290   4.312   4.537   0.235
13481SOL    HW245291   4.256   4.453   0.348
13482SOL     OW45292   5.001   4.071   0.957
13482SOL    HW145293   4.913   4.035   0.950
13482SOL    HW245294   5.054   4.001   0.993
13483SOL     OW45295   5.319   5.370   0.299
13483SOL    HW145296   5.411   5.389   0.278
13483SOL    HW245297   5.279   5.350   0.214
13484SOL     OW45298   4.532   4.307   1.432
13484SOL    HW145299   4.509   4.269   1.517
13484SOL    HW245300   4.508   4.239   1.369
13485SOL     OW45301   5.113   4.196   1.620
13485SOL    HW145302   5.115   4.234   1.708
13485SOL    HW245303   5.147   4.108   1.630
13486SOL     OW45304   4.689   4.595   1.596
13486SOL    HW145305   4.741   4.529   1.551
13486SOL    HW245306   4.641   4.640   1.527
13487SOL     OW45307   4.769   4.093   1.223
13487SOL    HW145308   4.675   4.108   1.237
13487SOL    HW245309   4.774   4.054   1.136
13488SOL     OW45310   3.814   4.502   0.797
13488SOL    HW145311   3.894   4.522   0.846
13488SOL    HW245312   3.758   4.578   0.811
13489SOL     OW45313   3.779   5.618   1.511
13489SOL    HW145314   3.690   5.607   1.544
13489SOL    HW245315   3.768   5.638   1.418
13490SOL     OW45316   4.605   4.072   0.157
13490SOL    HW145317   4.603   4.102   0.066
13490SOL    HW245318   4.608   3.977   0.151
13491SOL     OW45319   5.379   4.312   1.830
13491SOL    HW145320   5.365   4.371   1.757
13491SOL    HW245321   5.419   4.234   1.792
13492SOL     OW45322   5.110   4.868   0.529
13492SOL    HW145323   5.190   4.862   0.478
13492SOL    HW245324   5.059   4.936   0.485
13493SOL     OW45325   4.212   3.931   0.893
13493SOL    HW145326   4.254   3.935   0.979
13493SOL    HW245327   4.236   4.014   0.851
13494SOL     OW45328   4.074   5.547   0.877
13494SOL    HW145329   4.132   5.471   0.881
13494SOL    HW245330   4.133   5.622   0.890
13495SOL     OW45331   5.523   4.773   0.891
13495SOL    HW145332   5.486   4.813   0.813
13495SOL    HW245333   5.450   4.768   0.953
13496SOL     OW45334   4.929   5.269   1.519
13496SOL    HW145335   4.928   5.199   1.585
13496SOL    HW245336   4.870   5.239   1.451
13497SOL     OW45337   4.042   4.651   0.280
13497SOL    HW145338   4.125   4.665   0.235
13497SOL    HW245339   4.012   4.564   0.251
13498SOL     OW45340   5.211   4.511   0.780
13498SOL    HW145341   5.238   4.419   0.783
13498SOL    HW245342   5.271   4.552   0.717
13499SOL     OW45343   4.207   5.022   1.732
13499SOL    HW145344   4.179   5.037   1.642
13499SOL    HW245345   4.128   4.994   1.778
13500SOL     OW45346   4.746   5.440   0.233
13500SOL    HW145347   4.737   5.380   0.306
13500SOL    HW245348   4.758   5.384   0.156
13501SOL     OW45349   3.936   3.969   1.495
13501SOL    HW145350   3.852   4.015   1.495
13501SOL    HW245351   3.915   3.880   1.521
13502SOL     OW45352   5.375   5.042   0.066
13502SOL    HW145353   5.319   5.119   0.069
13502SOL    HW245354   5.397   5.031   9.974
13503SOL     OW45355   4.333   5.372   0.384
13503SOL    HW145356   4.312   5.455   0.427
13503SOL    HW245357   4.415   5.345   0.423
13504SOL     OW45358   5.125   3.831   0.451
13504SOL    HW145359   5.116   3.800   0.361
13504SOL    HW245360   5.220   3.834   0.465
13505SOL     OW45361   3.951   5.499   1.205
13505SOL    HW145362   4.010   5.424   1.218
13505SOL    HW245363   3.925   5.493   1.113
13506SOL     OW45364   4.120   4.369   0.480
13506SOL    HW145365   4.119   4.299   0.415
13506SOL    HW245366   4.029   4.375   0.511
13507SOL     OW45367   5.205   3.952   1.719
13507SOL    HW145368   5.193   3.961   1.814
13507SOL    HW245369   5.172   3.865   1.699
13508SOL     OW45370   4.349   3.856   0.129
13508SOL    HW145371   4.440   3.828   0.126
13508SOL    HW245372   4.319   3.851   0.038
13509SOL     OW45373   4.502   3.965   1.786
13509SOL    HW145374   4.585   3.918   1.772
13509SOL    HW245375   4.446   3.902   1.831
13510SOL     OW45376   4.595   5.249   1.227
13510SOL    HW145377   4.576   5.214   1.140
13510SOL    HW245378   4.670   5.199   1.257
13511SOL     OW45379   4.540   5.084   0.988
13511SOL    HW145380   4.550   5.167   0.942
13511SOL    HW245381   4.463   5.043   0.948
13512SOL     OW45382   4.655   4.225   0.879
13512SOL    HW145383   4.643   4.222   0.784
13512SOL    HW245384   4.678   4.135   0.903
13513SOL     OW45385   4.260   3.773   0.566
13513SOL    HW145386   4.261   3.714   0.641
13513SOL    HW245387   4.264   3.716   0.490
13514SOL     OW45388   5.046   4.860   0.004
13514SOL    HW145389   5.109   4.828   0.069
13514SOL    HW245390   5.021   4.947   0.036
13515SOL     OW45391   4.668   4.041   0.428
13515SOL    HW145392   4.652   4.052   0.335
13515SOL    HW245393   4.764   4.035   0.435
13516SOL     OW45394   4.794   4.397   1.437
13516SOL    HW145395   4.712   4.348   1.440
13516SOL    HW245396   4.855   4.340   1.390
13517SOL     OW45397   4.189   4.814   0.680
13517SOL    HW145398   4.121   4.811   0.747
13517SOL    HW245399   4.141   4.835   0.599
13518SOL     OW45400   4.958   5.502   0.549
13518SOL    HW145401   5.019   5.570   0.519
13518SOL    HW245402   4.872   5.536   0.526
13519SOL     OW45403   4.787   4.321   9.969
13519SOL    HW145404   4.743   4.237   9.957
13519SOL    HW245405   4.870   4.298   0.010
13520SOL     OW45406   3.789   4.260   1.301
13520SOL    HW145407   3.884   4.260   1.286
13520SOL    HW245408   3.775   4.328   1.367
13521SOL     OW45409   4.324   3.933   1.149
13521SOL    HW145410   4.362   3.849   1.124
13521SOL    HW245411   4.242   3.910   1.192
13522SOL     OW45412   4.597   4.243   0.606
13522SOL    HW145413   4.504   4.264   0.603
13522SOL    HW245414   4.606   4.165   0.550
13523SOL     OW45415   4.729   3.799   0.735
13523SOL    HW145416   4.667   3.799   0.661
13523SOL    HW245417   4.708   3.720   0.784
13524SOL     OW45418   5.206   4.894   0.829
13524SOL    HW145419   5.139   4.851   0.775
13524SOL    HW245420   5.279   4.908   0.768
13525SOL     OW45421   5.136   4.284   1.064
13525SOL    HW145422   5.087   4.215   1.018
13525SOL    HW245423   5.226   4.273   1.034
13526SOL     OW45424   5.534   4.487   0.380
13526SOL    HW145425   5.600   4.455   0.442
13526SOL    HW245426   5.532   4.419   0.311
13527SOL     OW45427   4.119   5.185   0.077
13527SOL    HW145428   4.066   5.156   0.152
13527SOL    HW245429   4.055   5.208   0.010
13528SOL     OW45430   5.441   4.963   0.681
13528SOL    HW145431   5.537   4.962   0.676
13528SOL    HW245432   5.419   5.056   0.677
13529SOL     OW45433   5.078   4.265   0.020
13529SOL    HW145434   5.108   4.196   0.079
13529SOL    HW245435   5.078   4.224   9.934
13530SOL     OW45436   4.215   3.982   0.330
13530SOL    HW145437   4.264   3.936   0.262
13530SOL    HW245438   4.192   4.066   0.291
13531SOL     OW45439   5.469   4.959   1.578
13531SOL    HW145440   5.548   4.929   1.533
13531SOL    HW245441   5.483   5.052   1.592
13532SOL     OW45442   4.776   5.090   1.366
13532SOL    HW145443   4.694   5.041   1.379
13532SOL    HW245444   4.844   5.025   1.385
13533SOL     OW45445   5.333   5.352   1.687
13533SOL    HW145446   5.310   5.388   1.601
13533SOL    HW245447   5.413   5.302   1.671
13534SOL     OW45448   4.854   4.955   1.080
13534SOL    HW145449   4.767   4.993   1.090
13534SOL    HW245450   4.857   4.925   0.990
13535SOL     OW45451   5.313   4.802   1.074
13535SOL    HW145452   5.300   4.869   1.141
13535SOL    HW245453   5.257   4.828   1.002
13536SOL     OW45454   4.618   3.788   1.382
13536SOL    HW145455   4.635   3.765   1.290
13536SOL    HW245456   4.700   3.825   1.413
13537SOL     OW45457   4.721   4.800   1.780
13537SOL    HW145458   4.630   4.830   1.786
13537SOL    HW245459   4.721   4.736   1.710
13538SOL     OW45460   4.489   4.759   0.378
13538SOL    HW145461   4.465   4.729   0.466
13538SOL    HW245462   4.564   4.705   0.354
13539SOL     OW45463   4.165   4.548   1.274
13539SOL    HW145464   4.232   4.547   1.342
13539SOL    HW245465   4.128   4.459   1.276
13540SOL     OW45466   4.987   4.249   1.295
13540SOL    HW145467   5.035   4.264   1.213
13540SOL    HW245468   4.917   4.188   1.271
13541SOL     OW45469   3.802   5.277   1.346
13541SOL    HW145470   3.769   5.352   1.296
13541SOL    HW245471   3.897   5.280   1.332
13542SOL     OW45472   4.007   4.854   0.458
13542SOL    HW145473   4.014   4.925   0.394
13542SOL    HW245474   4.027   4.775   0.408
13543SOL     OW45475   4.272   4.203   0.842
13543SOL    HW145476   4.294   4.255   0.764
13543SOL    HW245477   4.333   4.234   0.909
13544SOL     OW45478   4.973   5.099   0.428
13544SOL    HW145479   5.043   5.165   0.433
13544SOL    HW245480   4.894   5.150   0.411
13545SOL     OW45481   5.019   5.182   1.125
13545SOL    HW145482   5.067   5.187   1.207
13545SOL    HW245483   4.966   5.103   1.132
13546SOL     OW45484   5.286   4.336   0.471
13546SOL    HW145485   5.228   4.412   0.468
13546SOL    HW245486   5.357   4.357   0.411
13547SOL     OW45487   4.071   5.251   1.279
13547SOL    HW145488   4.076   5.204   1.195
13547SOL    HW245489   4.161   5.273   1.300
13548SOL     OW45490   4.142   4.482   1.618
13548SOL    HW145491   4.219   4.503   1.565
13548SOL    HW245492   4.132   4.387   1.608
13549SOL     OW45493   5.291   4.454   1.606
13549SOL    HW145494   5.225   4.518   1.634
13549SOL    HW245495   5.361   4.507   1.569
13550SOL     OW45496   4.750   3.856   1.755
13550SOL    HW145497   4.796   3.931   1.718
13550SOL    HW245498   4.800   3.780   1.725
13551SOL     OW45499   4.210   3.800   1.776
13551SOL    HW145500   4.164   3.734   1.726
13551SOL    HW245501   4.149   3.874   1.780
13552SOL     OW45502   4.317   4.591   1.045
13552SOL    HW145503   4.365   4.673   1.054
13552SOL    HW245504   4.265   4.584   1.125
13553SOL     OW45505   5.088   4.558   1.035
13553SOL    HW145506   5.128   4.567   0.948
13553SOL    HW245507   5.094   4.465   1.054
13554SOL     OW45508   4.902   4.314   0.382
13554SOL    HW145509   4.935   4.224   0.384
13554SOL    HW245510   4.979   4.367   0.360
13555SOL     OW45511   4.049   3.918   1.241
13555SOL    HW145512   4.017   3.934   1.329
13555SOL    HW245513   4.030   3.825   1.225
13556SOL     OW45514   3.731   5.018   1.282
13556SOL    HW145515   3.780   4.968   1.347
13556SOL    HW245516   3.756   5.109   1.299
13557SOL     OW45517   4.435   4.333   1.028
13557SOL    HW145518   4.512   4.329   0.972
13557SOL    HW245519   4.405   4.424   1.021
13558SOL     OW45520   5.475   4.685   1.800
13558SOL    HW145521   5.461   4.675   1.706
13558SOL    HW245522   5.398   4.735   1.830
13559SOL     OW45523   3.945   3.740   0.614
13559SOL    HW145524   3.854   3.764   0.627
13559SOL    HW245525   3.978   3.720   0.701
13560SOL     OW45526   5.331   4.089   0.345
13560SOL    HW145527   5.356   4.016   0.403
13560SOL    HW245528   5.295   4.154   0.404
13561SOL     OW45529   4.710   4.488   0.926
13561SOL    HW145530   4.712   4.499   1.021
13561SOL    HW245531   4.705   4.393   0.914
13562SOL     OW45532   4.665   5.273   1.708
13562SOL    HW145533   4.666   5.320   1.625
13562SOL    HW245534   4.728   5.202   1.696
13563SOL     OW45535   5.561   5.222   1.598
13563SOL    HW145536   5.582   5.250   1.509
13563SOL    HW245537   5.642   5.236   1.646
13564SOL     OW45538   4.095   4.648   1.832
13564SOL    HW145539   4.182   4.660   1.870
13564SOL    HW245540   4.110   4.587   1.759
13565SOL     OW45541   5.152   4.029   0.136
13565SOL    HW145542   5.126   3.937   0.146
13565SOL    HW245543   5.219   4.042   0.204
13566SOL     OW45544   5.064   4.532   0.046
13566SOL    HW145545   5.071   4.438   0.028
13566SOL    HW245546   5.147   4.568   0.015
13567SOL     OW45547   4.045   4.548   0.956
13567SOL    HW145548   4.138   4.570   0.961
13567SOL    HW245549   4.040   4.456   0.979
13568SOL     OW45550   4.064   4.273   1.010
13568SOL    HW145551   4.002   4.201   1.012
13568SOL    HW245552   4.132   4.246   0.948
13569SOL     OW45553   4.854   4.096   1.653
13569SOL    HW145554   4.814   4.149   1.723
13569SOL    HW245555   4.936   4.140   1.634
13570SOL     OW45556   4.856   3.911   1.444
13570SOL    HW145557   4.852   3.978   1.513
13570SOL    HW245558   4.854   3.961   1.363
13571SOL     OW45559   3.740   4.943   0.124
13571SOL    HW145560   3.665   5.002   0.117
13571SOL    HW245561   3.722   4.892   0.203
13572SOL     OW45562   3.815   5.491   0.953
13572SOL    HW145563   3.783   5.416   0.904
13572SOL    HW245564   3.900   5.511   0.913
13573SOL     OW45565   4.267   5.342   0.932
13573SOL    HW145566   4.297   5.415   0.986
13573SOL    HW245567   4.345   5.314   0.884
13574SOL     OW45568   4.662   4.493   1.200
13574SOL    HW145569   4.721   4.483   1.274
13574SOL    HW245570   4.590   4.432   1.218
13575SOL     OW45571   3.897   4.276   1.733
13575SOL    HW145572   3.937   4.202   1.689
13575SOL    HW245573   3.858   4.328   1.663
13576SOL     OW45574   5.095   4.639   1.655
13576SOL    HW145575   5.125   4.730   1.653
13576SOL    HW245576   5.067   4.622   1.565
13577SOL     OW45577   4.554   4.315   0.306
13577SOL    HW145578   4.566   4.235   0.255
13577SOL    HW245579   4.466   4.344   0.286
13578SOL     OW45580   5.347   4.245   1.343
13578SOL    HW145581   5.400   4.181   1.389
13578SOL    HW245582   5.398   4.268   1.265
13579SOL     OW45583   3.919   5.259   1.742
13579SOL    HW145584   3.867   5.278   1.821
13579SOL    HW245585   3.958   5.173   1.759
13580SOL     OW45586   4.491   4.141   1.219
13580SOL    HW145587   4.436   4.063   1.205
13580SOL    HW245588   4.464   4.202   1.151
13581SOL     OW45589   4.626   5.393   1.466
13581SOL    HW145590   4.618   5.347   1.383
13581SOL    HW245591   4.626   5.486   1.443
13582SOL     OW45592   4.135   4.226   0.240
13582SOL    HW145593   4.195   4.297   0.214
13582SOL    HW245594   4.050   4.252   0.204
13583SOL     OW45595   3.862   4.873   1.485
13583SOL    HW145596   3.872   4.834   1.572
13583SOL    HW245597   3.884   4.802   1.424
13584SOL     OW45598   4.991   4.746   1.214
13584SOL    HW145599   5.024   4.688   1.145
13584SOL    HW245600   4.944   4.815   1.168
13585SOL     OW45601   5.082   4.529   0.322
13585SOL    HW145602   5.119   4.617   0.326
13585SOL    HW245603   5.061   4.516   0.230
13586SOL     OW45604   5.475   5.474   1.179
13586SOL    HW145605   5.550   5.492   1.121
13586SOL    HW245606   5.442   5.389   1.150
13587SOL     OW45607   4.941   5.441   1.043
13587SOL    HW145608   5.025   5.485   1.028
13587SOL    HW245609   4.965   5.354   1.076
13588SOL     OW45610   3.804   4.958   1.013
13588SOL    HW145611   3.771   4.977   1.100
13588SOL    HW245612   3.742   4.895   0.977
13589SOL     OW45613   4.437   5.416   1.772
13589SOL    HW145614   4.392   5.436   1.690
13589SOL    HW245615   4.523   5.384   1.746
13590SOL     OW45616   4.620   3.799   0.097
13590SOL    HW145617   4.597   3.759   0.012
13590SOL    HW245618   4.694   3.747   0.128
13591SOL     OW45619   5.412   3.886   0.520
13591SOL    HW145620   5.498   3.879   0.477
13591SOL    HW245621   5.404   3.804   0.569
13592SOL     OW45622   5.148   5.302   0.499
13592SOL    HW145623   5.207   5.319   0.425
13592SOL    HW245624   5.098   5.383   0.509
13593SOL     OW45625   3.891   5.558   1.907
13593SOL    HW145626   3.847   5.473   1.913
13593SOL    HW245627   3.834   5.610   1.849
13594SOL     OW45628   5.004   4.683   0.700
13594SOL    HW145629   5.074   4.622   0.723
13594SOL    HW245630   5.039   4.734   0.627
13595SOL     OW45631   4.525   4.975   1.391
13595SOL    HW145632   4.497   5.016   1.473
13595SOL    HW245633   4.454   4.992   1.330
13596SOL     OW45634   4.358   5.389   0.112
13596SOL    HW145635   4.372   5.483   0.101
13596SOL    HW245636   4.352   5.376   0.207
13597SOL     OW45637   5.321   5.444   1.418
13597SOL    HW145638   5.379   5.445   1.342
13597SOL    HW245639   5.299   5.536   1.432
13598SOL     OW45640   5.583   3.925   0.978
13598SOL    HW145641   5.594   3.834   0.950
13598SOL    HW245642   5.500   3.952   0.938
13599SOL     OW45643   3.993   4.048   0.627
13599SOL    HW145644   3.900   4.073   0.629
13599SOL    HW245645   4.026   4.074   0.713
13600SOL     OW45646   4.820   5.283   0.000
13600SOL    HW145647   4.873   5.215   0.041
13600SOL    HW245648   4.883   5.350   9.974
13601SOL     OW45649   4.559   4.704   1.380
13601SOL    HW145650   4.586   4.683   1.291
13601SOL    HW245651   4.550   4.800   1.380
13602SOL     OW45652   4.686   4.573   0.300
13602SOL    HW145653   4.747   4.624   0.247
13602SOL    HW245654   4.650   4.508   0.240
13603SOL     OW45655   5.245   5.288   0.036
13603SOL    HW145656   5.201   5.277   9.951
13603SOL    HW245657   5.333   5.318   0.014
13604SOL     OW45658   4.074   5.064   1.500
13604SOL    HW145659   4.074   5.124   1.426
13604SOL    HW245660   4.002   5.003   1.481
13605SOL     OW45661   5.297   4.991   1.272
13605SOL    HW145662   5.390   5.013   1.279
13605SOL    HW245663   5.252   5.070   1.305
13606SOL     OW45664   4.829   4.864   0.824
13606SOL    HW145665   4.742   4.827   0.814
13606SOL    HW245666   4.887   4.802   0.780
13607SOL     OW45667   4.749   3.959   0.962
13607SOL    HW145668   4.742   3.918   0.876
13607SOL    HW245669   4.738   3.887   1.024
13608SOL     OW45670   4.330   5.154   0.590
13608SOL    HW145671   4.418   5.190   0.576
13608SOL    HW245672   4.278   5.192   0.519
13609SOL     OW45673   5.540   4.070   1.446
13609SOL    HW145674   5.600   4.140   1.421
13609SOL    HW245675   5.544   4.007   1.374
13610SOL     OW45676   3.966   5.046   0.257
13610SOL    HW145677   3.890   5.023   0.204
13610SOL    HW245678   3.931   5.101   0.328
13611SOL     OW45679   3.857   4.761   1.744
13611SOL    HW145680   3.786   4.697   1.755
13611SOL    HW245681   3.936   4.714   1.768
13612SOL     OW45682   4.391   3.915   1.502
13612SOL    HW145683   4.465   3.880   1.453
13612SOL    HW245684   4.424   3.929   1.590
13613SOL     OW45685   3.801   3.983   9.974
13613SOL    HW145686   3.756   3.993   0.057
13613SOL    HW245687   3.735   4.004   9.908
13614SOL     OW45688   5.122   4.559   1.376
13614SOL    HW145689   5.060   4.612   1.326
13614SOL    HW245690   5.208   4.582   1.339
13615SOL     OW45691   3.910   3.847   0.316
13615SOL    HW145692   3.819   3.820   0.325
13615SOL    HW245693   3.948   3.785   0.253
13616SOL     OW45694   4.902   5.059   0.153
13616SOL    HW145695   4.818   5.017   0.172
13616SOL    HW245696   4.947   5.062   0.237
13617SOL     OW45697   4.365   4.527   1.461
13617SOL    HW145698   4.425   4.599   1.440
13617SOL    HW245699   4.419   4.448   1.455
13618SOL     OW45700   5.196   5.556   1.008
13618SOL    HW145701   5.224   5.620   0.943
13618SOL    HW245702   5.275   5.508   1.031
13619SOL     OW45703   4.482   4.225   1.686
13619SOL    HW145704   4.512   4.280   1.758
13619SOL    HW245705   4.481   4.137   1.723
13620SOL     OW45706   5.194   4.898   1.628
13620SOL    HW145707   5.179   4.939   1.713
13620SOL    HW245708   5.280   4.930   1.601
13621SOL     OW45709   4.023   5.480   1.593
13621SOL    HW145710   3.946   5.520   1.554
13621SOL    HW245711   3.990   5.399   1.634
13622SOL     OW45712   5.373   4.607   1.264
13622SOL    HW145713   5.432   4.547   1.220
13622SOL    HW245714   5.352   4.672   1.197
13623SOL     OW45715   4.946   4.046   0.456
13623SOL    HW145716   5.007   3.972   0.448
13623SOL    HW245717   4.963   4.082   0.543
13624SOL     OW45718   4.347   4.381   0.637
13624SOL    HW145719   4.372   4.473   0.638
13624SOL    HW245720   4.267   4.378   0.584
13625SOL     OW45721   5.459   4.078   1.713
13625SOL    HW145722   5.495   4.073   1.624
13625SOL    HW245723   5.384   4.019   1.712
13626SOL     OW45724   5.426   4.683   1.527
13626SOL    HW145725   5.429   4.778   1.531
13626SOL    HW245726   5.420   4.663   1.433
13627SOL     OW45727   4.568   5.151   0.039
13627SOL    HW145728   4.578   5.112   0.126
13627SOL    HW245729   4.650   5.196   0.023
13628SOL     OW45730   4.349   5.593   1.029
13628SOL    HW145731   4.321   5.661   0.968
13628SOL    HW245732   4.429   5.558   0.990
13629SOL     OW45733   4.586   4.720   0.847
13629SOL    HW145734   4.629   4.638   0.872
13629SOL    HW245735   4.536   4.746   0.925
13630SOL     OW45736   4.848   4.690   0.112
13630SOL    HW145737   4.887   4.768   0.072
13630SOL    HW245738   4.904   4.618   0.085
13631SOL     OW45739   5.584   5.266   0.841
13631SOL    HW145740   5.512   5.252   0.779
13631SOL    HW245741   5.591   5.183   0.887
13632SOL     OW45742   3.965   4.995   1.846
13632SOL    HW145743   3.919   4.921   1.806
13632SOL    HW245744   3.941   4.991   1.939
13633SOL     OW45745   3.868   4.974   0.671
13633SOL    HW145746   3.900   4.925   0.747
13633SOL    HW245747   3.910   4.933   0.596
13634SOL     OW45748   4.444   5.103   1.618
13634SOL    HW145749   4.357   5.098   1.656
13634SOL    HW245750   4.469   5.195   1.625
13635SOL     OW45751   5.528   3.880   1.247
13635SOL    HW145752   5.543   3.785   1.246
13635SOL    HW245753   5.551   3.908   1.159
13636SOL     OW45754   5.381   5.243   1.076
13636SOL    HW145755   5.307   5.222   1.019
13636SOL    HW245756   5.447   5.177   1.054
13637SOL     OW45757   4.068   4.289   1.290
13637SOL    HW145758   4.115   4.224   1.343
13637SOL    HW245759   4.090   4.266   1.199
13638SOL     OW45760   5.164   3.880   1.067
13638SOL    HW145761   5.181   3.792   1.033
13638SOL    HW245762   5.183   3.873   1.161
13639SOL     OW45763   4.750   3.734   1.128
13639SOL    HW145764   4.709   3.674   1.065
13639SOL    HW245765   4.837   3.698   1.142
13640SOL     OW45766   4.579   5.056   0.294
13640SOL    HW145767   4.543   4.982   0.342
13640SOL    HW245768   4.588   5.125   0.359
13641SOL     OW45769   4.338   5.285   1.325
13641SOL    HW145770   4.340   5.349   1.396
13641SOL    HW245771   4.425   5.291   1.285
13642SOL     OW45772   5.088   3.763   0.187
13642SOL    HW145773   5.151   3.701   0.149
13642SOL    HW245774   5.002   3.724   0.167
13643SOL     OW45775   4.976   4.175   0.696
13643SOL    HW145776   4.952   4.268   0.705
13643SOL    HW245777   4.993   4.145   0.785
13644SOL     OW45778   5.341   4.013   0.892
13644SOL    HW145779   5.268   3.972   0.938
13644SOL    HW245780   5.300   4.077   0.834
13645SOL     OW45781   3.746   4.779   0.348
13645SOL    HW145782   3.830   4.799   0.388
13645SOL    HW245783   3.739   4.684   0.352
13646SOL     OW45784   3.896   4.368   1.998
13646SOL    HW145785   3.814   4.335   2.035
13646SOL    HW245786   3.892   4.346   1.905
13647SOL     OW45787   3.911   4.058   2.858
13647SOL    HW145788   3.957   4.015   2.930
13647SOL    HW245789   3.831   4.007   2.846
13648SOL     OW45790   3.714   4.115   2.504
13648SOL    HW145791   3.631   4.132   2.547
13648SOL    HW245792   3.698   4.038   2.449
13649SOL     OW45793   4.318   5.024   3.090
13649SOL    HW145794   4.236   5.022   3.040
13649SOL    HW245795   4.330   5.116   3.113
13650SOL     OW45796   5.335   5.205   2.573
13650SOL    HW145797   5.274   5.205   2.647
13650SOL    HW245798   5.283   5.236   2.499
13651SOL     OW45799   4.786   4.440   2.533
13651SOL    HW145800   4.850   4.507   2.509
13651SOL    HW245801   4.765   4.459   2.624
13652SOL     OW45802   5.479   4.288   2.088
13652SOL    HW145803   5.439   4.311   2.004
13652SOL    HW245804   5.540   4.218   2.067
13653SOL     OW45805   4.467   4.855   2.928
13653SOL    HW145806   4.411   4.892   2.996
13653SOL    HW245807   4.505   4.931   2.884
13654SOL     OW45808   4.596   4.461   3.702
13654SOL    HW145809   4.552   4.525   3.758
13654SOL    HW245810   4.619   4.510   3.623
13655SOL     OW45811   4.418   4.689   2.513
13655SOL    HW145812   4.484   4.703   2.582
13655SOL    HW245813   4.346   4.748   2.537
13656SOL     OW45814   4.457   4.871   3.718
13656SOL    HW145815   4.509   4.942   3.754
13656SOL    HW245816   4.383   4.914   3.676
13657SOL     OW45817   4.090   5.092   2.946
13657SOL    HW145818   4.024   5.037   2.904
13657SOL    HW245819   4.114   5.155   2.878
13658SOL     OW45820   5.171   5.230   3.264
13658SOL    HW145821   5.228   5.304   3.286
13658SOL    HW245822   5.095   5.241   3.322
13659SOL     OW45823   4.175   4.104   3.307
13659SOL    HW145824   4.244   4.039   3.321
13659SOL    HW245825   4.095   4.062   3.340
13660SOL     OW45826   5.326   4.176   2.594
13660SOL    HW145827   5.315   4.206   2.503
13660SOL    HW245828   5.267   4.232   2.645
13661SOL     OW45829   3.949   5.445   2.302
13661SOL    HW145830   3.973   5.512   2.366
13661SOL    HW245831   4.018   5.450   2.236
13662SOL     OW45832   4.852   5.070   3.565
13662SOL    HW145833   4.900   5.055   3.647
13662SOL    HW245834   4.803   4.989   3.551
13663SOL     OW45835   3.996   5.172   2.359
13663SOL    HW145836   3.966   5.263   2.357
13663SOL    HW245837   3.952   5.134   2.435
13664SOL     OW45838   4.332   5.504   3.339
13664SOL    HW145839   4.237   5.506   3.354
13664SOL    HW245840   4.357   5.596   3.333
13665SOL     OW45841   4.340   4.692   2.001
13665SOL    HW145842   4.378   4.755   1.939
13665SOL    HW245843   4.371   4.722   2.086
13666SOL     OW45844   5.290   3.871   3.308
13666SOL    HW145845   5.346   3.943   3.278
13666SOL    HW245846   5.254   3.903   3.391
13667SOL     OW45847   3.835   4.369   2.441
13667SOL    HW145848   3.877   4.285   2.428
13667SOL    HW245849   3.747   4.348   2.473
13668SOL     OW45850   5.585   5.473   2.162
13668SOL    HW145851   5.662   5.464   2.217
13668SOL    HW245852   5.588   5.563   2.130
13669SOL     OW45853   3.749   5.312   1.953
13669SOL    HW145854   3.674   5.253   1.944
13669SOL    HW245855   3.728   5.367   2.029
13670SOL     OW45856   5.453   4.616   2.466
13670SOL    HW145857   5.521   4.604   2.532
13670SOL    HW245858   5.491   4.582   2.385
13671SOL     OW45859   5.423   4.875   2.258
13671SOL    HW145860   5.508   4.843   2.229
13671SOL    HW245861   5.416   4.962   2.219
13672SOL     OW45862   3.844   4.468   3.409
13672SOL    HW145863   3.929   4.501   3.439
13672SOL    HW245864   3.796   4.546   3.382
13673SOL     OW45865   4.340   5.090   2.631
13673SOL    HW145866   4.297   5.006   2.615
13673SOL    HW245867   4.344   5.132   2.545
13674SOL     OW45868   4.994   4.939   3.278
13674SOL    HW145869   5.024   4.875   3.214
13674SOL    HW245870   5.056   4.931   3.351
13675SOL     OW45871   4.562   3.773   2.368
13675SOL    HW145872   4.592   3.855   2.330
13675SOL    HW245873   4.466   3.779   2.366
13676SOL     OW45874   3.889   4.655   3.066
13676SOL    HW145875   3.976   4.632   3.099
13676SOL    HW245876   3.833   4.658   3.144
13677SOL     OW45877   5.215   4.771   2.078
13677SOL    HW145878   5.175   4.687   2.099
13677SOL    HW245879   5.305   4.763   2.109
13678SOL     OW45880   5.003   5.560   3.482
13678SOL    HW145881   4.941   5.588   3.414
13678SOL    HW245882   5.001   5.464   3.478
13679SOL     OW45883   4.038   3.987   3.725
13679SOL    HW145884   4.061   4.079   3.716
13679SOL    HW245885   3.942   3.987   3.730
13680SOL     OW45886   5.158   5.173   2.786
13680SOL    HW145887   5.114   5.199   2.867
13680SOL    HW245888   5.127   5.083   2.771
13681SOL     OW45889   5.410   5.526   2.427
13681SOL    HW145890   5.368   5.491   2.349
13681SOL    HW245891   5.453   5.451   2.467
13682SOL     OW45892   4.284   4.435   2.111
13682SOL    HW145893   4.289   4.522   2.071
13682SOL    HW245894   4.226   4.447   2.186
13683SOL     OW45895   4.998   4.117   2.795
13683SOL    HW145896   4.911   4.077   2.804
13683SOL    HW245897   5.056   4.056   2.841
13684SOL     OW45898   5.321   5.395   2.193
13684SOL    HW145899   5.413   5.415   2.175
13684SOL    HW245900   5.281   5.388   2.107
13685SOL     OW45901   4.522   4.313   3.297
13685SOL    HW145902   4.533   4.268   3.381
13685SOL    HW245903   4.492   4.245   3.237
13686SOL     OW45904   5.093   4.194   3.523
13686SOL    HW145905   5.118   4.233   3.607
13686SOL    HW245906   5.132   4.106   3.525
13687SOL     OW45907   4.669   4.593   3.468
13687SOL    HW145908   4.724   4.530   3.420
13687SOL    HW245909   4.613   4.632   3.401
13688SOL     OW45910   4.734   4.134   3.061
13688SOL    HW145911   4.642   4.135   3.085
13688SOL    HW245912   4.736   4.084   2.979
13689SOL     OW45913   3.849   4.596   2.613
13689SOL    HW145914   3.871   4.514   2.568
13689SOL    HW245915   3.768   4.626   2.570
13690SOL     OW45916   3.814   5.603   3.432
13690SOL    HW145917   3.816   5.571   3.521
13690SOL    HW245918   3.731   5.572   3.397
13691SOL     OW45919   4.606   4.094   2.021
13691SOL    HW145920   4.673   4.135   1.967
13691SOL    HW245921   4.560   4.034   1.963
13692SOL     OW45922   5.429   4.295   3.696
13692SOL    HW145923   5.416   4.371   3.640
13692SOL    HW245924   5.447   4.223   3.636
13693SOL     OW45925   5.127   4.875   2.323
13693SOL    HW145926   5.145   4.858   2.231
13693SOL    HW245927   5.062   4.946   2.322
13694SOL     OW45928   4.287   3.902   2.769
13694SOL    HW145929   4.286   3.920   2.863
13694SOL    HW245930   4.291   3.988   2.728
13695SOL     OW45931   4.713   5.188   2.330
13695SOL    HW145932   4.686   5.252   2.265
13695SOL    HW245933   4.675   5.220   2.412
13696SOL     OW45934   4.068   5.531   2.735
13696SOL    HW145935   4.117   5.449   2.744
13696SOL    HW245936   4.131   5.599   2.759
13697SOL     OW45937   5.527   4.808   2.803
13697SOL    HW145938   5.490   4.849   2.724
13697SOL    HW245939   5.453   4.802   2.864
13698SOL     OW45940   4.942   5.290   3.410
13698SOL    HW145941   4.922   5.209   3.456
13698SOL    HW245942   4.859   5.316   3.369
13699SOL     OW45943   3.932   4.646   2.054
13699SOL    HW145944   3.993   4.661   1.981
13699SOL    HW245945   3.918   4.552   2.055
13700SOL     OW45946   5.208   4.547   2.578
13700SOL    HW145947   5.194   4.481   2.646
13700SOL    HW245948   5.301   4.540   2.558
13701SOL     OW45949   4.190   4.971   3.656
13701SOL    HW145950   4.173   4.877   3.650
13701SOL    HW245951   4.102   5.010   3.660
13702SOL     OW45952   4.858   5.447   2.088
13702SOL    HW145953   4.767   5.425   2.111
13702SOL    HW245954   4.874   5.401   2.006
13703SOL     OW45955   3.920   4.011   3.400
13703SOL    HW145956   3.847   4.032   3.341
13703SOL    HW245957   3.911   3.918   3.417
13704SOL     OW45958   5.350   5.099   2.006
13704SOL    HW145959   5.329   5.192   1.993
13704SOL    HW245960   5.281   5.052   1.960
13705SOL     OW45961   4.171   5.491   2.135
13705SOL    HW145962   4.220   5.534   2.206
13705SOL    HW245963   4.234   5.429   2.098
13706SOL     OW45964   3.976   5.485   3.048
13706SOL    HW145965   4.052   5.433   3.021
13706SOL    HW245966   3.919   5.484   2.971
13707SOL     OW45967   4.676   5.420   2.743
13707SOL    HW145968   4.761   5.376   2.736
13707SOL    HW245969   4.621   5.377   2.677
13708SOL     OW45970   4.120   4.420   2.340
13708SOL    HW145971   4.133   4.325   2.347
13708SOL    HW245972   4.027   4.433   2.361
13709SOL     OW45973   5.210   3.941   3.578
13709SOL    HW145974   5.212   3.964   3.671
13709SOL    HW245975   5.173   3.853   3.576
13710SOL     OW45976   4.370   3.808   1.991
13710SOL    HW145977   4.398   3.719   2.010
13710SOL    HW245978   4.309   3.799   1.917
13711SOL     OW45979   4.521   3.993   3.698
13711SOL    HW145980   4.592   3.935   3.672
13711SOL    HW245981   4.453   3.934   3.731
13712SOL     OW45982   4.600   5.248   3.074
13712SOL    HW145983   4.576   5.218   2.986
13712SOL    HW245984   4.658   5.180   3.108
13713SOL     OW45985   5.044   4.308   3.278
13713SOL    HW145986   5.071   4.275   3.364
13713SOL    HW245987   5.081   4.395   3.272
13714SOL     OW45988   4.544   5.106   2.828
13714SOL    HW145989   4.627   5.101   2.781
13714SOL    HW245990   4.477   5.110   2.760
13715SOL     OW45991   4.652   4.233   2.738
13715SOL    HW145992   4.626   4.219   2.646
13715SOL    HW245993   4.674   4.146   2.770
13716SOL     OW45994   4.290   3.796   2.343
13716SOL    HW145995   4.213   3.790   2.399
13716SOL    HW245996   4.272   3.869   2.284
13717SOL     OW45997   5.138   4.960   1.895
13717SOL    HW145998   5.157   4.887   1.953
13717SOL    HW245999   5.050   4.989   1.919
13718SOL     OW46000   3.994   3.757   2.010
13718SOL    HW146001   4.049   3.820   1.962
13718SOL    HW246002   4.056   3.701   2.056
13719SOL     OW46003   4.674   4.018   2.282
13719SOL    HW146004   4.651   4.033   2.190
13719SOL    HW246005   4.769   4.014   2.282
13720SOL     OW46006   4.788   4.415   3.294
13720SOL    HW146007   4.719   4.349   3.294
13720SOL    HW246008   4.869   4.366   3.281
13721SOL     OW46009   4.929   5.316   2.662
13721SOL    HW146010   4.944   5.382   2.594
13721SOL    HW246011   5.016   5.294   2.694
13722SOL     OW46012   4.196   4.859   2.555
13722SOL    HW146013   4.125   4.846   2.618
13722SOL    HW246014   4.153   4.854   2.469
13723SOL     OW46015   4.974   5.525   2.483
13723SOL    HW146016   5.015   5.587   2.423
13723SOL    HW246017   4.901   5.573   2.521
13724SOL     OW46018   4.775   4.258   1.870
13724SOL    HW146019   4.716   4.332   1.855
13724SOL    HW246020   4.850   4.295   1.917
13725SOL     OW46021   3.844   4.280   3.210
13725SOL    HW146022   3.937   4.282   3.190
13725SOL    HW246023   3.833   4.342   3.282
13726SOL     OW46024   4.273   3.940   3.045
13726SOL    HW146025   4.298   3.858   3.086
13726SOL    HW246026   4.179   3.950   3.065
13727SOL     OW46027   4.572   4.193   2.469
13727SOL    HW146028   4.477   4.184   2.476
13727SOL    HW246029   4.599   4.117   2.418
13728SOL     OW46030   4.669   3.816   2.623
13728SOL    HW146031   4.637   3.805   2.533
13728SOL    HW246032   4.677   3.727   2.657
13729SOL     OW46033   5.169   4.343   2.781
13729SOL    HW146034   5.109   4.269   2.792
13729SOL    HW246035   5.231   4.335   2.853
13730SOL     OW46036   5.559   4.508   2.236
13730SOL    HW146037   5.623   4.465   2.293
13730SOL    HW246038   5.537   4.442   2.171
13731SOL     OW46039   4.202   5.132   1.999
13731SOL    HW146040   4.124   5.091   2.037
13731SOL    HW246041   4.206   5.097   1.910
13732SOL     OW46042   5.430   4.943   2.573
13732SOL    HW146043   5.523   4.937   2.551
13732SOL    HW246044   5.410   5.036   2.567
13733SOL     OW46045   5.120   4.256   1.893
13733SOL    HW146046   5.115   4.168   1.931
13733SOL    HW246047   5.214   4.274   1.887
13734SOL     OW46048   4.249   4.000   2.163
13734SOL    HW146049   4.294   3.943   2.100
13734SOL    HW246050   4.206   4.066   2.109
13735SOL     OW46051   5.455   4.982   3.395
13735SOL    HW146052   5.544   4.947   3.387
13735SOL    HW246053   5.468   5.072   3.424
13736SOL     OW46054   4.754   5.049   3.188
13736SOL    HW146055   4.679   5.020   3.239
13736SOL    HW246056   4.830   5.016   3.236
13737SOL     OW46057   5.326   5.384   3.529
13737SOL    HW146058   5.318   5.432   3.446
13737SOL    HW246059   5.402   5.328   3.517
13738SOL     OW46060   4.894   4.982   2.960
13738SOL    HW146061   4.829   4.997   3.028
13738SOL    HW246062   4.851   5.006   2.878
13739SOL     OW46063   5.312   4.811   2.979
13739SOL    HW146064   5.325   4.888   3.035
13739SOL    HW246065   5.219   4.790   2.990
13740SOL     OW46066   4.627   3.801   3.249
13740SOL    HW146067   4.641   3.782   3.156
13740SOL    HW246068   4.712   3.833   3.280
13741SOL     OW46069   4.711   4.832   3.594
13741SOL    HW146070   4.621   4.845   3.626
13741SOL    HW246071   4.706   4.752   3.542
13742SOL     OW46072   4.470   4.757   2.246
13742SOL    HW146073   4.444   4.737   2.335
13742SOL    HW246074   4.542   4.697   2.227
13743SOL     OW46075   4.149   4.573   3.144
13743SOL    HW146076   4.206   4.574   3.220
13743SOL    HW246077   4.126   4.481   3.133
13744SOL     OW46078   4.991   4.073   3.141
13744SOL    HW146079   5.020   4.153   3.184
13744SOL    HW246080   4.902   4.093   3.110
13745SOL     OW46081   3.802   5.337   3.205
13745SOL    HW146082   3.722   5.375   3.169
13745SOL    HW246083   3.872   5.390   3.167
13746SOL     OW46084   4.029   4.824   2.322
13746SOL    HW146085   4.022   4.890   2.253
13746SOL    HW246086   4.032   4.740   2.276
13747SOL     OW46087   4.306   4.191   2.694
13747SOL    HW146088   4.307   4.255   2.623
13747SOL    HW246089   4.355   4.233   2.765
13748SOL     OW46090   4.966   5.096   2.270
13748SOL    HW146091   5.023   5.168   2.299
13748SOL    HW246092   4.878   5.123   2.296
13749SOL     OW46093   5.034   5.216   3.025
13749SOL    HW146094   5.079   5.213   3.109
13749SOL    HW246095   4.982   5.136   3.022
13750SOL     OW46096   5.328   4.289   2.330
13750SOL    HW146097   5.294   4.378   2.324
13750SOL    HW246098   5.390   4.282   2.257
13751SOL     OW46099   4.073   5.192   3.202
13751SOL    HW146100   4.070   5.153   3.115
13751SOL    HW246101   4.162   5.228   3.209
13752SOL     OW46102   4.114   4.484   3.494
13752SOL    HW146103   4.192   4.484   3.438
13752SOL    HW246104   4.096   4.391   3.510
13753SOL     OW46105   5.358   4.521   3.562
13753SOL    HW146106   5.269   4.552   3.547
13753SOL    HW246107   5.408   4.555   3.488
13754SOL     OW46108   4.764   3.865   3.663
13754SOL    HW146109   4.798   3.937   3.609
13754SOL    HW246110   4.805   3.787   3.626
13755SOL     OW46111   4.221   3.828   3.591
13755SOL    HW146112   4.177   3.752   3.553
13755SOL    HW246113   4.150   3.884   3.620
13756SOL     OW46114   4.329   4.602   2.927
13756SOL    HW146115   4.373   4.687   2.927
13756SOL    HW246116   4.273   4.604   3.005
13757SOL     OW46117   5.005   4.555   2.880
13757SOL    HW146118   4.917   4.529   2.853
13757SOL    HW246119   5.062   4.485   2.847
13758SOL     OW46120   4.863   4.319   2.236
13758SOL    HW146121   4.896   4.230   2.244
13758SOL    HW246122   4.941   4.372   2.220
13759SOL     OW46123   3.998   3.925   3.084
13759SOL    HW146124   3.914   3.937   3.126
13759SOL    HW246125   4.008   3.830   3.075
13760SOL     OW46126   3.752   5.048   3.119
13760SOL    HW146127   3.668   5.020   3.156
13760SOL    HW246128   3.729   5.119   3.059
13761SOL     OW46129   4.429   4.341   2.891
13761SOL    HW146130   4.510   4.343   2.840
13761SOL    HW246131   4.400   4.432   2.895
13762SOL     OW46132   5.467   4.709   3.736
13762SOL    HW146133   5.432   4.634   3.688
13762SOL    HW246134   5.403   4.724   3.806
13763SOL     OW46135   4.051   3.797   2.480
13763SOL    HW146136   4.014   3.882   2.502
13763SOL    HW246137   4.054   3.750   2.564
13764SOL     OW46138   5.239   4.038   2.259
13764SOL    HW146139   5.312   3.984   2.290
13764SOL    HW246140   5.259   4.126   2.289
13765SOL     OW46141   4.740   4.479   2.817
13765SOL    HW146142   4.713   4.492   2.909
13765SOL    HW246143   4.720   4.387   2.800
13766SOL     OW46144   4.702   5.298   3.604
13766SOL    HW146145   4.672   5.335   3.521
13766SOL    HW246146   4.732   5.210   3.582
13767SOL     OW46147   5.557   5.243   3.445
13767SOL    HW146148   5.595   5.274   3.363
13767SOL    HW246149   5.632   5.233   3.504
13768SOL     OW46150   4.130   4.697   3.666
13768SOL    HW146151   4.186   4.666   3.737
13768SOL    HW246152   4.126   4.624   3.604
13769SOL     OW46153   5.158   3.998   1.997
13769SOL    HW146154   5.123   3.910   2.013
13769SOL    HW246155   5.199   4.023   2.079
13770SOL     OW46156   5.029   4.517   1.899
13770SOL    HW146157   5.060   4.427   1.887
13770SOL    HW246158   5.049   4.561   1.816
13771SOL     OW46159   4.794   5.077   2.718
13771SOL    HW146160   4.811   5.003   2.659
13771SOL    HW246161   4.839   5.151   2.678
13772SOL     OW46162   4.069   4.540   2.831
13772SOL    HW146163   4.161   4.562   2.845
13772SOL    HW246164   4.066   4.444   2.838
13773SOL     OW46165   4.093   4.263   2.856
13773SOL    HW146166   4.022   4.199   2.851
13773SOL    HW246167   4.159   4.231   2.795
13774SOL     OW46168   4.832   4.089   3.512
13774SOL    HW146169   4.757   4.148   3.522
13774SOL    HW246170   4.909   4.146   3.519
13775SOL     OW46171   4.876   3.893   3.324
13775SOL    HW146172   4.861   3.963   3.388
13775SOL    HW246173   4.928   3.935   3.255
13776SOL     OW46174   3.712   4.937   1.995
13776SOL    HW146175   3.651   5.011   1.998
13776SOL    HW246176   3.696   4.896   1.910
13777SOL     OW46177   3.805   5.473   2.828
13777SOL    HW146178   3.758   5.403   2.782
13777SOL    HW246179   3.882   5.490   2.773
13778SOL     OW46180   4.209   5.288   2.779
13778SOL    HW146181   4.279   5.351   2.795
13778SOL    HW246182   4.251   5.220   2.725
13779SOL     OW46183   4.646   4.507   3.074
13779SOL    HW146184   4.709   4.492   3.144
13779SOL    HW246185   4.571   4.451   3.097
13780SOL     OW46186   3.761   4.296   2.944
13780SOL    HW146187   3.797   4.217   2.903
13780SOL    HW246188   3.793   4.292   3.035
13781SOL     OW46189   3.950   4.243   3.565
13781SOL    HW146190   3.943   4.161   3.517
13781SOL    HW246191   3.880   4.298   3.529
13782SOL     OW46192   5.107   4.630   3.516
13782SOL    HW146193   5.125   4.724   3.512
13782SOL    HW246194   5.097   4.603   3.425
13783SOL     OW46195   4.526   4.315   2.167
13783SOL    HW146196   4.541   4.235   2.117
13783SOL    HW246197   4.436   4.341   2.145
13784SOL     OW46198   5.349   4.320   2.995
13784SOL    HW146199   5.325   4.252   3.057
13784SOL    HW246200   5.440   4.300   2.972
13785SOL     OW46201   3.957   5.268   3.523
13785SOL    HW146202   3.928   5.342   3.576
13785SOL    HW246203   3.954   5.193   3.583
13786SOL     OW46204   4.458   4.146   3.088
13786SOL    HW146205   4.396   4.074   3.082
13786SOL    HW246206   4.432   4.206   3.018
13787SOL     OW46207   4.690   5.387   3.320
13787SOL    HW146208   4.657   5.338   3.244
13787SOL    HW246209   4.668   5.478   3.302
13788SOL     OW46210   4.132   4.216   2.026
13788SOL    HW146211   4.197   4.284   2.042
13788SOL    HW246212   4.048   4.263   2.023
13789SOL     OW46213   3.896   4.920   3.366
13789SOL    HW146214   3.893   4.873   3.449
13789SOL    HW246215   3.861   4.858   3.302
13790SOL     OW46216   5.044   4.764   3.048
13790SOL    HW146217   5.026   4.691   2.990
13790SOL    HW246218   4.990   4.836   3.014
13791SOL     OW46219   5.025   4.577   2.171
13791SOL    HW146220   4.950   4.634   2.157
13791SOL    HW246221   5.041   4.536   2.085
13792SOL     OW46222   5.512   5.458   3.050
13792SOL    HW146223   5.568   5.483   2.977
13792SOL    HW246224   5.464   5.381   3.019
13793SOL     OW46225   5.009   5.493   2.997
13793SOL    HW146226   5.081   5.507   2.935
13793SOL    HW246227   5.005   5.399   3.009
13794SOL     OW46228   3.878   4.914   2.887
13794SOL    HW146229   3.848   4.938   2.975
13794SOL    HW246230   3.797   4.908   2.835
13795SOL     OW46231   4.358   5.396   3.597
13795SOL    HW146232   4.291   5.461   3.618
13795SOL    HW246233   4.382   5.416   3.506
13796SOL     OW46234   5.473   3.914   2.349
13796SOL    HW146235   5.529   3.899   2.273
13796SOL    HW246236   5.448   3.827   2.379
13797SOL     OW46237   5.139   5.303   2.383
13797SOL    HW146238   5.195   5.333   2.312
13797SOL    HW246239   5.085   5.378   2.406
13798SOL     OW46240   3.870   5.488   3.679
13798SOL    HW146241   3.820   5.423   3.728
13798SOL    HW246242   3.903   5.548   3.746
13799SOL     OW46243   4.973   4.623   2.459
13799SOL    HW146244   5.053   4.598   2.504
13799SOL    HW246245   4.996   4.619   2.366
13800SOL     OW46246   4.504   4.987   3.295
13800SOL    HW146247   4.470   5.031   3.372
13800SOL    HW246248   4.436   4.998   3.228
13801SOL     OW46249   4.375   5.338   2.026
13801SOL    HW146250   4.390   5.365   1.935
13801SOL    HW246251   4.319   5.261   2.019
13802SOL     OW46252   5.310   5.488   3.253
13802SOL    HW146253   5.386   5.473   3.196
13802SOL    HW246254   5.238   5.503   3.192
13803SOL     OW46255   5.593   3.875   2.827
13803SOL    HW146256   5.623   3.786   2.805
13803SOL    HW246257   5.507   3.881   2.785
13804SOL     OW46258   3.971   4.048   2.575
13804SOL    HW146259   3.881   4.069   2.549
13804SOL    HW246260   3.967   4.043   2.670
13805SOL     OW46261   4.948   5.342   1.849
13805SOL    HW146262   4.922   5.260   1.806
13805SOL    HW246263   4.927   5.410   1.784
13806SOL     OW46264   4.532   4.712   3.263
13806SOL    HW146265   4.566   4.698   3.175
13806SOL    HW246266   4.525   4.808   3.271
13807SOL     OW46267   4.657   4.559   2.190
13807SOL    HW146268   4.715   4.603   2.127
13807SOL    HW246269   4.612   4.492   2.138
13808SOL     OW46270   5.214   5.362   1.935
13808SOL    HW146271   5.123   5.344   1.909
13808SOL    HW246272   5.262   5.367   1.853
13809SOL     OW46273   5.321   5.027   3.151
13809SOL    HW146274   5.381   5.005   3.223
13809SOL    HW246275   5.257   5.086   3.191
13810SOL     OW46276   4.831   4.838   2.589
13810SOL    HW146277   4.754   4.791   2.622
13810SOL    HW246278   4.879   4.772   2.538
13811SOL     OW46279   4.748   3.976   2.829
13811SOL    HW146280   4.724   3.934   2.747
13811SOL    HW246281   4.747   3.905   2.893
13812SOL     OW46282   4.333   5.205   2.381
13812SOL    HW146283   4.380   5.153   2.316
13812SOL    HW246284   4.243   5.207   2.349
13813SOL     OW46285   5.489   4.083   3.262
13813SOL    HW146286   5.554   4.152   3.247
13813SOL    HW246287   5.510   4.015   3.198
13814SOL     OW46288   3.958   5.023   2.132
13814SOL    HW146289   3.863   5.024   2.116
13814SOL    HW246290   3.971   5.084   2.205
13815SOL     OW46291   3.871   4.793   3.610
13815SOL    HW146292   3.793   4.749   3.644
13815SOL    HW246293   3.944   4.740   3.642
13816SOL     OW46294   4.380   3.914   3.354
13816SOL    HW146295   4.468   3.885   3.328
13816SOL    HW246296   4.376   3.895   3.448
13817SOL     OW46297   3.774   4.053   1.892
13817SOL    HW146298   3.698   4.014   1.849
13817SOL    HW246299   3.773   4.145   1.864
13818SOL     OW46300   5.131   4.574   3.247
13818SOL    HW146301   5.084   4.631   3.186
13818SOL    HW246302   5.219   4.569   3.212
13819SOL     OW46303   3.770   3.871   2.114
13819SOL    HW146304   3.757   3.939   2.048
13819SOL    HW246305   3.852   3.829   2.089
13820SOL     OW46306   4.887   5.034   1.992
13820SOL    HW146307   4.792   5.045   1.987
13820SOL    HW246308   4.909   5.056   2.082
13821SOL     OW46309   4.343   4.523   3.336
13821SOL    HW146310   4.403   4.596   3.320
13821SOL    HW246311   4.397   4.445   3.324
13822SOL     OW46312   5.230   5.539   2.843
13822SOL    HW146313   5.253   5.619   2.796
13822SOL    HW246314   5.298   5.476   2.820
13823SOL     OW46315   4.588   4.222   3.553
13823SOL    HW146316   4.577   4.297   3.611
13823SOL    HW246317   4.550   4.149   3.601
13824SOL     OW46318   5.192   4.896   3.479
13824SOL    HW146319   5.182   4.920   3.571
13824SOL    HW246320   5.281   4.923   3.456
13825SOL     OW46321   4.068   5.497   3.409
13825SOL    HW146322   3.984   5.542   3.395
13825SOL    HW246323   4.044   5.407   3.428
13826SOL     OW46324   5.375   4.573   3.117
13826SOL    HW146325   5.373   4.491   3.068
13826SOL    HW246326   5.370   4.641   3.051
13827SOL     OW46327   4.956   4.068   2.298
13827SOL    HW146328   5.040   4.028   2.275
13827SOL    HW246329   4.968   4.101   2.387
13828SOL     OW46330   4.341   4.415   2.519
13828SOL    HW146331   4.370   4.507   2.521
13828SOL    HW246332   4.266   4.416   2.460
13829SOL     OW46333   5.457   4.073   3.536
13829SOL    HW146334   5.471   4.076   3.442
13829SOL    HW246335   5.382   4.014   3.547
13830SOL     OW46336   5.493   4.642   3.357
13830SOL    HW146337   5.482   4.737   3.357
13830SOL    HW246338   5.461   4.614   3.272
13831SOL     OW46339   4.613   5.107   1.939
13831SOL    HW146340   4.554   5.147   2.003
13831SOL    HW246341   4.620   5.172   1.869
13832SOL     OW46342   4.390   5.491   2.796
13832SOL    HW146343   4.363   5.583   2.786
13832SOL    HW246344   4.485   5.493   2.793
13833SOL     OW46345   4.609   4.712   2.721
13833SOL    HW146346   4.652   4.634   2.757
13833SOL    HW246347   4.564   4.751   2.795
13834SOL     OW46348   4.822   4.673   2.002
13834SOL    HW146349   4.785   4.734   1.938
13834SOL    HW246350   4.885   4.621   1.953
13835SOL     OW46351   5.596   5.263   2.696
13835SOL    HW146352   5.515   5.236   2.652
13835SOL    HW246353   5.619   5.188   2.751
13836SOL     OW46354   3.924   5.049   3.687
13836SOL    HW146355   3.899   4.963   3.654
13836SOL    HW246356   3.869   5.061   3.765
13837SOL     OW46357   3.878   4.951   2.523
13837SOL    HW146358   3.809   4.891   2.551
13837SOL    HW246359   3.924   4.903   2.454
13838SOL     OW46360   4.382   5.118   3.511
13838SOL    HW146361   4.305   5.074   3.545
13838SOL    HW246362   4.374   5.209   3.542
13839SOL     OW46363   5.556   3.879   3.100
13839SOL    HW146364   5.553   3.784   3.113
13839SOL    HW246365   5.568   3.889   3.005
13840SOL     OW46366   4.152   4.156   2.385
13840SOL    HW146367   4.181   4.090   2.321
13840SOL    HW246368   4.103   4.105   2.450
13841SOL     OW46369   5.372   5.239   2.972
13841SOL    HW146370   5.315   5.212   2.900
13841SOL    HW246371   5.375   5.162   3.029
13842SOL     OW46372   4.108   4.304   3.134
13842SOL    HW146373   4.142   4.233   3.187
13842SOL    HW246374   4.117   4.274   3.044
13843SOL     OW46375   4.547   5.343   2.507
13843SOL    HW146376   4.549   5.428   2.463
13843SOL    HW246377   4.469   5.299   2.472
13844SOL     OW46378   5.149   3.940   2.945
13844SOL    HW146379   5.164   3.847   2.958
13844SOL    HW246380   5.105   3.969   3.026
13845SOL     OW46381   4.725   3.741   2.983
13845SOL    HW146382   4.670   3.678   2.938
13845SOL    HW246383   4.810   3.698   2.991
13846SOL     OW46384   4.489   5.041   2.226
13846SOL    HW146385   4.482   4.945   2.220
13846SOL    HW246386   4.579   5.057   2.254
13847SOL     OW46387   4.342   5.287   3.170
13847SOL    HW146388   4.340   5.364   3.227
13847SOL    HW246389   4.429   5.287   3.132
13848SOL     OW46390   5.101   3.738   2.084
13848SOL    HW146391   5.132   3.688   2.008
13848SOL    HW246392   5.009   3.712   2.094
13849SOL     OW46393   4.973   4.211   2.533
13849SOL    HW146394   4.907   4.279   2.544
13849SOL    HW246395   4.984   4.174   2.621
13850SOL     OW46396   5.339   3.923   2.738
13850SOL    HW146397   5.271   3.936   2.805
13850SOL    HW246398   5.329   3.998   2.679
13851SOL     OW46399   4.599   5.387   2.176
13851SOL    HW146400   4.520   5.371   2.126
13851SOL    HW246401   4.577   5.459   2.235
13852SOL     OW46402   3.956   4.320   3.838
13852SOL    HW146403   3.869   4.311   3.876
13852SOL    HW246404   3.944   4.300   3.745
13853SOL     OW46405   3.940   3.960   4.672
13853SOL    HW146406   3.984   3.875   4.670
13853SOL    HW246407   3.849   3.939   4.696
13854SOL     OW46408   3.729   4.137   4.355
13854SOL    HW146409   3.655   4.171   4.405
13854SOL    HW246410   3.693   4.065   4.304
13855SOL     OW46411   4.317   5.028   4.939
13855SOL    HW146412   4.239   5.015   4.885
13855SOL    HW246413   4.312   5.120   4.966
13856SOL     OW46414   5.334   5.229   4.445
13856SOL    HW146415   5.274   5.200   4.514
13856SOL    HW246416   5.277   5.242   4.369
13857SOL     OW46417   4.839   4.448   4.417
13857SOL    HW146418   4.889   4.527   4.399
13857SOL    HW246419   4.798   4.464   4.502
13858SOL     OW46420   5.540   4.293   3.943
13858SOL    HW146421   5.508   4.297   3.853
13858SOL    HW246422   5.492   4.220   3.983
13859SOL     OW46423   4.540   4.898   4.812
13859SOL    HW146424   4.461   4.896   4.866
13859SOL    HW246425   4.539   4.984   4.771
13860SOL     OW46426   4.606   4.451   5.560
13860SOL    HW146427   4.558   4.512   5.617
13860SOL    HW246428   4.623   4.502   5.480
13861SOL     OW46429   4.420   4.690   4.382
13861SOL    HW146430   4.484   4.698   4.453
13861SOL    HW246431   4.352   4.754   4.404
13862SOL     OW46432   4.431   4.882   5.546
13862SOL    HW146433   4.466   4.964   5.583
13862SOL    HW246434   4.358   4.910   5.491
13863SOL     OW46435   4.096   5.107   4.783
13863SOL    HW146436   4.023   5.055   4.751
13863SOL    HW246437   4.113   5.171   4.714
13864SOL     OW46438   5.160   5.224   5.096
13864SOL    HW146439   5.216   5.301   5.106
13864SOL    HW246440   5.097   5.231   5.167
13865SOL     OW46441   5.326   4.156   4.481
13865SOL    HW146442   5.316   4.193   4.393
13865SOL    HW246443   5.284   4.219   4.539
13866SOL     OW46444   3.935   5.447   4.192
13866SOL    HW146445   3.962   5.516   4.253
13866SOL    HW246446   4.006   5.444   4.127
13867SOL     OW46447   4.850   5.054   5.463
13867SOL    HW146448   4.894   5.031   5.544
13867SOL    HW246449   4.796   4.978   5.442
13868SOL     OW46450   3.978   5.179   4.270
13868SOL    HW146451   3.942   5.268   4.268
13868SOL    HW246452   3.917   5.129   4.324
13869SOL     OW46453   4.092   4.776   4.660
13869SOL    HW146454   4.049   4.691   4.662
13869SOL    HW246455   4.025   4.838   4.690
13870SOL     OW46456   4.374   5.512   5.184
13870SOL    HW146457   4.289   5.490   5.222
13870SOL    HW246458   4.380   5.608   5.193
13871SOL     OW46459   4.313   4.700   3.895
13871SOL    HW146460   4.361   4.747   3.828
13871SOL    HW246461   4.348   4.733   3.978
13872SOL     OW46462   5.287   3.870   5.175
13872SOL    HW146463   5.339   3.941   5.138
13872SOL    HW246464   5.256   3.903   5.259
13873SOL     OW46465   3.875   4.362   4.269
13873SOL    HW146466   3.827   4.280   4.281
13873SOL    HW246467   3.853   4.415   4.346
13874SOL     OW46468   5.580   5.480   4.058
13874SOL    HW146469   5.658   5.469   4.113
13874SOL    HW246470   5.591   5.566   4.018
13875SOL     OW46471   3.755   5.302   3.836
13875SOL    HW146472   3.738   5.212   3.865
13875SOL    HW246473   3.725   5.356   3.909
13876SOL     OW46474   5.428   4.645   4.392
13876SOL    HW146475   5.513   4.604   4.407
13876SOL    HW246476   5.431   4.673   4.300
13877SOL     OW46477   5.388   4.834   4.158
13877SOL    HW146478   5.470   4.817   4.112
13877SOL    HW246479   5.412   4.891   4.231
13878SOL     OW46480   3.842   4.465   5.273
13878SOL    HW146481   3.922   4.516   5.287
13878SOL    HW246482   3.776   4.530   5.250
13879SOL     OW46483   4.345   5.122   4.471
13879SOL    HW146484   4.310   5.034   4.475
13879SOL    HW246485   4.326   5.152   4.382
13880SOL     OW46486   4.984   4.952   5.132
13880SOL    HW146487   5.003   4.882   5.070
13880SOL    HW246488   5.048   4.941   5.202
13881SOL     OW46489   3.918   4.670   5.048
13881SOL    HW146490   4.002   4.632   5.024
13881SOL    HW246491   3.858   4.641   4.979
13882SOL     OW46492   5.258   4.754   3.925
13882SOL    HW146493   5.194   4.687   3.953
13882SOL    HW246494   5.301   4.780   4.007
13883SOL     OW46495   4.769   5.461   5.274
13883SOL    HW146496   4.806   5.547   5.256
13883SOL    HW246497   4.844   5.401   5.269
13884SOL     OW46498   4.043   4.012   5.629
13884SOL    HW146499   4.079   4.096   5.656
13884SOL    HW246500   3.949   4.028   5.619
13885SOL     OW46501   5.148   5.138   4.634
13885SOL    HW146502   5.096   5.149   4.714
13885SOL    HW246503   5.141   5.045   4.613
13886SOL     OW46504   5.350   5.586   4.257
13886SOL    HW146505   5.349   5.522   4.186
13886SOL    HW246506   5.379   5.537   4.334
13887SOL     OW46507   4.335   4.433   4.007
13887SOL    HW146508   4.333   4.522   3.969
13887SOL    HW246509   4.270   4.436   4.077
13888SOL     OW46510   5.003   4.123   4.662
13888SOL    HW146511   4.914   4.087   4.669
13888SOL    HW246512   5.057   4.061   4.711
13889SOL     OW46513   5.315   5.400   4.049
13889SOL    HW146514   5.410   5.409   4.043
13889SOL    HW246515   5.287   5.376   3.961
13890SOL     OW46516   4.509   4.328   5.140
13890SOL    HW146517   4.504   4.292   5.229
13890SOL    HW246518   4.487   4.255   5.083
13891SOL     OW46519   5.119   4.201   5.385
13891SOL    HW146520   5.122   4.241   5.472
13891SOL    HW246521   5.164   4.117   5.395
13892SOL     OW46522   4.663   4.592   5.326
13892SOL    HW146523   4.719   4.531   5.279
13892SOL    HW246524   4.609   4.633   5.258
13893SOL     OW46525   4.730   4.132   4.922
13893SOL    HW146526   4.638   4.132   4.947
13893SOL    HW246527   4.733   4.084   4.839
13894SOL     OW46528   4.729   4.369   4.174
13894SOL    HW146529   4.775   4.395   4.253
13894SOL    HW246530   4.642   4.344   4.203
13895SOL     OW46531   3.801   4.510   4.481
13895SOL    HW146532   3.840   4.546   4.561
13895SOL    HW246533   3.722   4.562   4.467
13896SOL     OW46534   3.854   5.573   5.312
13896SOL    HW146535   3.856   5.546   5.404
13896SOL    HW246536   3.773   5.537   5.278
13897SOL     OW46537   4.695   3.982   3.915
13897SOL    HW146538   4.619   4.001   3.860
13897SOL    HW246539   4.749   3.923   3.863
13898SOL     OW46540   5.441   4.290   5.565
13898SOL    HW146541   5.409   4.364   5.514
13898SOL    HW246542   5.455   4.220   5.500
13899SOL     OW46543   5.132   4.885   4.281
13899SOL    HW146544   5.214   4.868   4.234
13899SOL    HW246545   5.082   4.943   4.223
13900SOL     OW46546   4.279   3.902   4.645
13900SOL    HW146547   4.279   3.916   4.740
13900SOL    HW246548   4.271   3.990   4.608
13901SOL     OW46549   4.728   5.193   4.192
13901SOL    HW146550   4.696   5.264   4.136
13901SOL    HW246551   4.691   5.212   4.278
13902SOL     OW46552   4.040   5.536   4.632
13902SOL    HW146553   4.084   5.452   4.622
13902SOL    HW246554   4.111   5.599   4.642
13903SOL     OW46555   5.530   4.801   4.617
13903SOL    HW146556   5.483   4.787   4.535
13903SOL    HW246557   5.463   4.796   4.685
13904SOL     OW46558   4.934   5.239   5.266
13904SOL    HW146559   4.934   5.176   5.338
13904SOL    HW246560   4.882   5.197   5.197
13905SOL     OW46561   4.036   4.683   4.008
13905SOL    HW146562   4.118   4.681   3.957
13905SOL    HW246563   3.998   4.597   3.994
13906SOL     OW46564   5.201   4.498   4.432
13906SOL    HW146565   5.202   4.450   4.515
13906SOL    HW246566   5.282   4.549   4.432
13907SOL     OW46567   4.224   5.019   5.421
13907SOL    HW146568   4.184   5.022   5.334
13907SOL    HW246569   4.150   5.021   5.482
13908SOL     OW46570   4.848   5.499   3.956
13908SOL    HW146571   4.766   5.469   3.995
13908SOL    HW246572   4.869   5.431   3.891
13909SOL     OW46573   3.943   4.042   5.295
13909SOL    HW146574   3.910   4.100   5.226
13909SOL    HW246575   3.873   3.978   5.308
13910SOL     OW46576   5.354   5.115   3.822
13910SOL    HW146577   5.313   5.200   3.806
13910SOL    HW246578   5.288   5.051   3.794
13911SOL     OW46579   4.163   5.474   4.030
13911SOL    HW146580   4.216   5.516   4.098
13911SOL    HW246581   4.226   5.426   3.977
13912SOL     OW46582   5.094   3.846   4.177
13912SOL    HW146583   5.093   3.820   4.085
13912SOL    HW246584   5.182   3.825   4.207
13913SOL     OW46585   4.015   5.525   4.915
13913SOL    HW146586   4.021   5.435   4.948
13913SOL    HW246587   4.009   5.515   4.820
13914SOL     OW46588   4.691   5.425   4.586
13914SOL    HW146589   4.774   5.378   4.587
13914SOL    HW246590   4.636   5.377   4.524
13915SOL     OW46591   4.143   4.389   4.202
13915SOL    HW146592   4.162   4.296   4.214
13915SOL    HW246593   4.048   4.396   4.216
13916SOL     OW46594   5.224   3.947   5.449
13916SOL    HW146595   5.231   3.972   5.542
13916SOL    HW246596   5.178   3.864   5.450
13917SOL     OW46597   4.353   3.804   3.826
13917SOL    HW146598   4.369   3.711   3.838
13917SOL    HW246599   4.303   3.810   3.745
13918SOL     OW46600   4.470   3.978   5.501
13918SOL    HW146601   4.556   3.935   5.491
13918SOL    HW246602   4.421   3.918   5.557
13919SOL     OW46603   4.601   5.281   4.945
13919SOL    HW146604   4.579   5.250   4.857
13919SOL    HW246605   4.664   5.216   4.978
13920SOL     OW46606   5.049   4.315   5.145
13920SOL    HW146607   5.084   4.283   5.228
13920SOL    HW246608   5.086   4.402   5.134
13921SOL     OW46609   4.533   5.153   4.700
13921SOL    HW146610   4.614   5.139   4.652
13921SOL    HW246611   4.464   5.145   4.634
13922SOL     OW46612   4.652   4.240   4.611
13922SOL    HW146613   4.621   4.232   4.521
13922SOL    HW246614   4.682   4.152   4.634
13923SOL     OW46615   4.332   3.788   4.223
13923SOL    HW146616   4.243   3.777   4.256
13923SOL    HW246617   4.326   3.859   4.159
13924SOL     OW46618   5.150   4.939   3.751
13924SOL    HW146619   5.184   4.868   3.806
13924SOL    HW246620   5.066   4.961   3.790
13925SOL     OW46621   4.005   3.770   3.906
13925SOL    HW146622   4.051   3.837   3.855
13925SOL    HW246623   4.074   3.714   3.940
13926SOL     OW46624   4.655   3.832   4.158
13926SOL    HW146625   4.665   3.873   4.072
13926SOL    HW246626   4.720   3.876   4.212
13927SOL     OW46627   4.792   4.414   5.161
13927SOL    HW146628   4.730   4.341   5.160
13927SOL    HW246629   4.878   4.373   5.154
13928SOL     OW46630   4.937   5.302   4.520
13928SOL    HW146631   4.965   5.366   4.455
13928SOL    HW246632   5.019   5.262   4.551
13929SOL     OW46633   4.222   4.877   4.440
13929SOL    HW146634   4.174   4.843   4.516
13929SOL    HW246635   4.159   4.872   4.368
13930SOL     OW46636   4.982   5.515   4.336
13930SOL    HW146637   5.025   5.583   4.284
13930SOL    HW246638   4.903   5.556   4.369
13931SOL     OW46639   4.792   4.333   3.849
13931SOL    HW146640   4.717   4.369   3.802
13931SOL    HW246641   4.868   4.377   3.811
13932SOL     OW46642   3.872   4.239   5.115
13932SOL    HW146643   3.958   4.261   5.079
13932SOL    HW246644   3.846   4.316   5.165
13933SOL     OW46645   4.276   3.921   4.924
13933SOL    HW146646   4.316   3.840   4.956
13933SOL    HW246647   4.186   3.919   4.956
13934SOL     OW46648   4.532   4.220   4.362
13934SOL    HW146649   4.466   4.289   4.369
13934SOL    HW246650   4.486   4.148   4.319
13935SOL     OW46651   4.762   3.778   4.486
13935SOL    HW146652   4.842   3.744   4.446
13935SOL    HW246653   4.726   3.704   4.533
13936SOL     OW46654   5.137   4.867   4.575
13936SOL    HW146655   5.081   4.790   4.587
13936SOL    HW246656   5.150   4.873   4.481
13937SOL     OW46657   5.177   4.346   4.665
13937SOL    HW146658   5.115   4.274   4.675
13937SOL    HW246659   5.238   4.337   4.738
13938SOL     OW46660   5.534   4.518   4.101
13938SOL    HW146661   5.573   4.475   4.177
13938SOL    HW246662   5.531   4.450   4.034
13939SOL     OW46663   4.230   5.141   3.884
13939SOL    HW146664   4.152   5.117   3.935
13939SOL    HW246665   4.229   5.081   3.809
13940SOL     OW46666   5.463   4.989   4.364
13940SOL    HW146667   5.557   4.985   4.383
13940SOL    HW246668   5.436   5.076   4.395
13941SOL     OW46669   5.166   4.280   3.774
13941SOL    HW146670   5.161   4.193   3.814
13941SOL    HW246671   5.260   4.296   3.764
13942SOL     OW46672   4.311   3.993   4.028
13942SOL    HW146673   4.326   3.927   3.961
13942SOL    HW246674   4.259   4.060   3.985
13943SOL     OW46675   5.442   4.979   5.241
13943SOL    HW146676   5.528   4.939   5.230
13943SOL    HW246677   5.461   5.065   5.280
13944SOL     OW46678   4.758   5.107   5.097
13944SOL    HW146679   4.679   5.057   5.115
13944SOL    HW246680   4.828   5.042   5.099
13945SOL     OW46681   5.317   5.372   5.387
13945SOL    HW146682   5.310   5.405   5.298
13945SOL    HW246683   5.394   5.315   5.385
13946SOL     OW46684   4.820   4.951   4.823
13946SOL    HW146685   4.732   4.918   4.838
13946SOL    HW246686   4.815   4.996   4.739
13947SOL     OW46687   5.316   4.805   4.795
13947SOL    HW146688   5.302   4.869   4.865
13947SOL    HW246689   5.248   4.825   4.730
13948SOL     OW46690   4.608   3.802   5.105
13948SOL    HW146691   4.631   3.781   5.015
13948SOL    HW246692   4.686   3.842   5.142
13949SOL     OW46693   4.693   4.825   5.465
13949SOL    HW146694   4.602   4.842   5.488
13949SOL    HW246695   4.690   4.747   5.410
13950SOL     OW46696   4.461   4.781   4.118
13950SOL    HW146697   4.443   4.748   4.207
13950SOL    HW246698   4.533   4.727   4.086
13951SOL     OW46699   4.155   4.535   4.995
13951SOL    HW146700   4.212   4.543   5.072
13951SOL    HW246701   4.135   4.441   4.990
13952SOL     OW46702   4.986   4.082   5.007
13952SOL    HW146703   5.018   4.161   5.051
13952SOL    HW246704   4.899   4.105   4.977
13953SOL     OW46705   3.777   5.293   5.071
13953SOL    HW146706   3.732   5.349   5.008
13953SOL    HW246707   3.869   5.296   5.046
13954SOL     OW46708   4.041   4.858   4.227
13954SOL    HW146709   4.040   4.930   4.164
13954SOL    HW246710   4.039   4.779   4.172
13955SOL     OW46711   4.258   4.183   4.581
13955SOL    HW146712   4.266   4.216   4.492
13955SOL    HW246713   4.319   4.236   4.633
13956SOL     OW46714   4.979   5.085   4.130
13956SOL    HW146715   5.037   5.151   4.168
13956SOL    HW246716   4.891   5.111   4.159
13957SOL     OW46717   5.009   5.172   4.868
13957SOL    HW146718   5.057   5.178   4.950
13957SOL    HW246719   4.946   5.101   4.882
13958SOL     OW46720   5.315   4.314   4.249
13958SOL    HW146721   5.256   4.379   4.288
13958SOL    HW246722   5.396   4.363   4.233
13959SOL     OW46723   4.044   5.262   5.001
13959SOL    HW146724   4.041   5.198   4.930
13959SOL    HW246725   4.137   5.277   5.015
13960SOL     OW46726   4.111   4.519   5.373
13960SOL    HW146727   4.189   4.521   5.318
13960SOL    HW246728   4.101   4.427   5.397
13961SOL     OW46729   5.358   4.515   5.429
13961SOL    HW146730   5.270   4.550   5.416
13961SOL    HW246731   5.407   4.543   5.351
13962SOL     OW46732   4.716   3.867   5.480
13962SOL    HW146733   4.776   3.937   5.454
13962SOL    HW246734   4.762   3.786   5.456
13963SOL     OW46735   4.114   3.797   5.483
13963SOL    HW146736   4.044   3.737   5.507
13963SOL    HW246737   4.095   3.878   5.530
13964SOL     OW46738   4.287   4.583   4.758
13964SOL    HW146739   4.254   4.665   4.721
13964SOL    HW246740   4.247   4.577   4.844
13965SOL     OW46741   5.017   4.587   4.711
13965SOL    HW146742   4.929   4.553   4.698
13965SOL    HW246743   5.074   4.512   4.695
13966SOL     OW46744   4.025   3.878   5.033
13966SOL    HW146745   3.938   3.916   5.021
13966SOL    HW246746   4.021   3.794   4.986
13967SOL     OW46747   3.815   5.027   4.983
13967SOL    HW146748   3.820   4.971   5.061
13967SOL    HW246749   3.775   5.108   5.014
13968SOL     OW46750   4.419   4.331   4.750
13968SOL    HW146751   4.503   4.329   4.704
13968SOL    HW246752   4.392   4.422   4.745
13969SOL     OW46753   5.487   4.693   5.600
13969SOL    HW146754   5.447   4.622   5.551
13969SOL    HW246755   5.425   4.712   5.671
13970SOL     OW46756   4.073   3.786   4.328
13970SOL    HW146757   4.034   3.873   4.339
13970SOL    HW246758   4.071   3.749   4.416
13971SOL     OW46759   5.350   4.115   4.058
13971SOL    HW146760   5.398   4.050   4.111
13971SOL    HW246761   5.322   4.181   4.122
13972SOL     OW46762   4.749   4.486   4.689
13972SOL    HW146763   4.721   4.498   4.780
13972SOL    HW246764   4.724   4.395   4.669
13973SOL     OW46765   4.723   5.294   5.510
13973SOL    HW146766   4.725   5.350   5.433
13973SOL    HW246767   4.747   5.207   5.477
13974SOL     OW46768   5.544   5.224   5.323
13974SOL    HW146769   5.573   5.250   5.235
13974SOL    HW246770   5.622   5.234   5.377
13975SOL     OW46771   4.078   4.679   5.596
13975SOL    HW146772   4.164   4.682   5.639
13975SOL    HW246773   4.093   4.623   5.519
13976SOL     OW46774   5.200   4.015   3.847
13976SOL    HW146775   5.160   3.933   3.876
13976SOL    HW246776   5.258   4.041   3.919
13977SOL     OW46777   5.004   4.497   3.740
13977SOL    HW146778   5.064   4.423   3.751
13977SOL    HW246779   5.035   4.541   3.661
13978SOL     OW46780   4.771   5.090   4.584
13978SOL    HW146781   4.784   5.013   4.528
13978SOL    HW246782   4.832   5.155   4.550
13979SOL     OW46783   4.018   4.511   4.682
13979SOL    HW146784   4.112   4.504   4.694
13979SOL    HW246785   3.987   4.420   4.680
13980SOL     OW46786   4.022   4.217   4.720
13980SOL    HW146787   3.982   4.131   4.708
13980SOL    HW246788   4.100   4.215   4.665
13981SOL     OW46789   4.863   4.090   5.391
13981SOL    HW146790   4.820   4.139   5.461
13981SOL    HW246791   4.949   4.132   5.382
13982SOL     OW46792   4.852   3.908   5.182
13982SOL    HW146793   4.850   3.971   5.254
13982SOL    HW246794   4.908   3.949   5.116
13983SOL     OW46795   3.740   5.030   3.902
13983SOL    HW146796   3.649   5.045   3.879
13983SOL    HW246797   3.742   4.942   3.940
13984SOL     OW46798   3.748   5.537   4.611
13984SOL    HW146799   3.739   5.442   4.601
13984SOL    HW246800   3.842   5.552   4.622
13985SOL     OW46801   4.200   5.312   4.619
13985SOL    HW146802   4.274   5.363   4.653
13985SOL    HW246803   4.241   5.248   4.561
13986SOL     OW46804   4.648   4.512   4.946
13986SOL    HW146805   4.716   4.496   5.012
13986SOL    HW246806   4.574   4.458   4.975
13987SOL     OW46807   3.773   4.282   4.855
13987SOL    HW146808   3.848   4.263   4.800
13987SOL    HW246809   3.798   4.251   4.942
13988SOL     OW46810   3.950   4.283   5.463
13988SOL    HW146811   3.955   4.196   5.423
13988SOL    HW246812   3.890   4.332   5.406
13989SOL     OW46813   5.118   4.642   5.372
13989SOL    HW146814   5.133   4.737   5.365
13989SOL    HW246815   5.106   4.613   5.282
13990SOL     OW46816   4.512   4.213   4.037
13990SOL    HW146817   4.448   4.142   4.035
13990SOL    HW246818   4.460   4.292   4.022
13991SOL     OW46819   5.370   4.325   4.866
13991SOL    HW146820   5.363   4.255   4.931
13991SOL    HW246821   5.462   4.328   4.842
13992SOL     OW46822   3.978   5.267   5.420
13992SOL    HW146823   3.949   5.334   5.481
13992SOL    HW246824   3.988   5.188   5.474
13993SOL     OW46825   4.450   4.140   4.950
13993SOL    HW146826   4.395   4.062   4.939
13993SOL    HW246827   4.427   4.196   4.876
13994SOL     OW46828   4.193   4.211   3.920
13994SOL    HW146829   4.243   4.291   3.935
13994SOL    HW246830   4.105   4.242   3.897
13995SOL     OW46831   3.861   4.875   5.219
13995SOL    HW146832   3.863   4.843   5.309
13995SOL    HW246833   3.879   4.798   5.166
13996SOL     OW46834   5.001   4.763   4.924
13996SOL    HW146835   5.016   4.702   4.851
13996SOL    HW246836   4.939   4.827   4.889
13997SOL     OW46837   5.065   4.576   4.005
13997SOL    HW146838   5.012   4.527   4.068
13997SOL    HW246839   5.033   4.547   3.919
13998SOL     OW46840   5.482   5.420   4.860
13998SOL    HW146841   5.555   5.439   4.802
13998SOL    HW246842   5.452   5.333   4.834
13999SOL     OW46843   4.995   5.458   4.837
13999SOL    HW146844   5.085   5.485   4.821
13999SOL    HW246845   4.999   5.362   4.844
14000SOL     OW46846   3.884   4.943   4.732
14000SOL    HW146847   3.851   4.968   4.818
14000SOL    HW246848   3.806   4.914   4.683
14001SOL     OW46849   4.404   5.430   5.499
14001SOL    HW146850   4.322   5.478   5.493
14001SOL    HW246851   4.469   5.489   5.462
14002SOL     OW46852   5.492   3.927   4.202
14002SOL    HW146853   5.548   3.903   4.128
14002SOL    HW246854   5.445   3.847   4.224
14003SOL     OW46855   5.140   5.294   4.242
14003SOL    HW146856   5.196   5.326   4.171
14003SOL    HW246857   5.083   5.368   4.263
14004SOL     OW46858   3.882   5.476   5.571
14004SOL    HW146859   3.826   5.413   5.617
14004SOL    HW246860   3.915   5.533   5.640
14005SOL     OW46861   4.996   4.669   4.379
14005SOL    HW146862   5.067   4.607   4.395
14005SOL    HW246863   5.037   4.740   4.331
14006SOL     OW46864   4.506   5.002   5.139
14006SOL    HW146865   4.478   5.061   5.209
14006SOL    HW246866   4.435   5.005   5.075
14007SOL     OW46867   4.385   5.367   3.875
14007SOL    HW146868   4.395   5.374   3.780
14007SOL    HW246869   4.339   5.285   3.888
14008SOL     OW46870   5.341   5.442   5.108
14008SOL    HW146871   5.385   5.404   5.032
14008SOL    HW246872   5.368   5.534   5.107
14009SOL     OW46873   5.577   3.876   4.686
14009SOL    HW146874   5.606   3.787   4.666
14009SOL    HW246875   5.490   3.882   4.647
14010SOL     OW46876   3.983   4.037   4.405
14010SOL    HW146877   3.899   4.076   4.378
14010SOL    HW246878   3.972   4.019   4.499
14011SOL     OW46879   4.929   5.312   3.769
14011SOL    HW146880   4.927   5.221   3.799
14011SOL    HW246881   4.857   5.318   3.706
14012SOL     OW46882   4.528   4.722   5.125
14012SOL    HW146883   4.565   4.701   5.039
14012SOL    HW246884   4.525   4.817   5.128
14013SOL     OW46885   4.657   4.619   4.025
14013SOL    HW146886   4.718   4.647   3.956
14013SOL    HW246887   4.694   4.536   4.056
14014SOL     OW46888   5.207   5.369   3.785
14014SOL    HW146889   5.116   5.346   3.766
14014SOL    HW246890   5.247   5.381   3.699
14015SOL     OW46891   4.081   5.046   5.192
14015SOL    HW146892   4.052   5.118   5.137
14015SOL    HW246893   4.007   4.986   5.194
14016SOL     OW46894   5.296   5.000   4.998
14016SOL    HW146895   5.355   4.979   5.071
14016SOL    HW246896   5.239   5.068   5.032
14017SOL     OW46897   4.799   4.852   4.459
14017SOL    HW146898   4.726   4.799   4.494
14017SOL    HW246899   4.860   4.787   4.425
14018SOL     OW46900   4.754   3.976   4.686
14018SOL    HW146901   4.755   3.929   4.602
14018SOL    HW246902   4.747   3.907   4.752
14019SOL     OW46903   4.323   5.215   4.211
14019SOL    HW146904   4.372   5.162   4.148
14019SOL    HW246905   4.232   5.210   4.181
14020SOL     OW46906   5.475   4.082   5.113
14020SOL    HW146907   5.545   4.146   5.103
14020SOL    HW246908   5.501   4.010   5.056
14021SOL     OW46909   4.003   5.065   4.026
14021SOL    HW146910   3.916   5.058   3.988
14021SOL    HW246911   3.990   5.113   4.108
14022SOL     OW46912   3.851   4.801   5.496
14022SOL    HW146913   3.776   4.748   5.523
14022SOL    HW246914   3.927   4.753   5.528
14023SOL     OW46915   4.366   3.877   5.252
14023SOL    HW146916   4.448   3.869   5.204
14023SOL    HW246917   4.390   3.922   5.334
14024SOL     OW46918   3.760   4.004   3.741
14024SOL    HW146919   3.730   3.928   3.691
14024SOL    HW246920   3.707   4.077   3.708
14025SOL     OW46921   5.124   4.583   5.104
14025SOL    HW146922   5.071   4.640   5.049
14025SOL    HW246923   5.211   4.585   5.063
14026SOL     OW46924   3.764   3.869   3.991
14026SOL    HW146925   3.745   3.926   3.916
14026SOL    HW246926   3.853   3.837   3.974
14027SOL     OW46927   4.907   5.047   3.854
14027SOL    HW146928   4.814   5.024   3.852
14027SOL    HW246929   4.931   5.045   3.946
14028SOL     OW46930   4.335   4.535   5.202
14028SOL    HW146931   4.390   4.612   5.186
14028SOL    HW246932   4.393   4.460   5.189
14029SOL     OW46933   5.250   5.565   4.784
14029SOL    HW146934   5.285   5.612   4.708
14029SOL    HW246935   5.325   5.515   4.818
14030SOL     OW46936   4.490   4.239   5.397
14030SOL    HW146937   4.523   4.295   5.467
14030SOL    HW246938   4.479   4.153   5.437
14031SOL     OW46939   5.184   4.911   5.333
14031SOL    HW146940   5.189   4.930   5.427
14031SOL    HW246941   5.272   4.932   5.300
14032SOL     OW46942   4.116   5.466   5.282
14032SOL    HW146943   4.034   5.511   5.259
14032SOL    HW246944   4.088   5.381   5.316
14033SOL     OW46945   5.365   4.589   4.969
14033SOL    HW146946   5.370   4.505   4.923
14033SOL    HW246947   5.357   4.654   4.899
14034SOL     OW46948   4.893   4.061   4.161
14034SOL    HW146949   4.959   3.991   4.155
14034SOL    HW246950   4.914   4.106   4.243
14035SOL     OW46951   4.347   4.418   4.388
14035SOL    HW146952   4.373   4.510   4.388
14035SOL    HW246953   4.271   4.415   4.329
14036SOL     OW46954   5.468   4.072   5.392
14036SOL    HW146955   5.472   4.079   5.297
14036SOL    HW246956   5.392   4.017   5.409
14037SOL     OW46957   5.490   4.625   5.213
14037SOL    HW146958   5.504   4.720   5.213
14037SOL    HW246959   5.453   4.606   5.128
14038SOL     OW46960   4.611   5.083   3.815
14038SOL    HW146961   4.565   5.091   3.899
14038SOL    HW246962   4.602   5.169   3.775
14039SOL     OW46963   4.401   5.485   4.689
14039SOL    HW146964   4.366   5.571   4.667
14039SOL    HW246965   4.493   5.488   4.661
14040SOL     OW46966   4.600   4.713   4.597
14040SOL    HW146967   4.643   4.635   4.633
14040SOL    HW246968   4.573   4.763   4.675
14041SOL     OW46969   4.817   4.695   3.814
14041SOL    HW146970   4.792   4.750   3.740
14041SOL    HW246971   4.882   4.635   3.779
14042SOL     OW46972   5.587   5.281   4.569
14042SOL    HW146973   5.503   5.264   4.527
14042SOL    HW246974   5.612   5.197   4.609
14043SOL     OW46975   3.992   5.034   5.574
14043SOL    HW146976   3.936   4.963   5.543
14043SOL    HW246977   3.972   5.042   5.667
14044SOL     OW46978   3.811   4.974   4.379
14044SOL    HW146979   3.774   4.924   4.452
14044SOL    HW246980   3.872   4.914   4.337
14045SOL     OW46981   4.425   5.194   5.333
14045SOL    HW146982   4.358   5.133   5.362
14045SOL    HW246983   4.425   5.263   5.399
14046SOL     OW46984   5.543   3.871   4.959
14046SOL    HW146985   5.539   3.775   4.967
14046SOL    HW246986   5.559   3.886   4.866
14047SOL     OW46987   4.211   4.131   4.271
14047SOL    HW146988   4.226   4.072   4.197
14047SOL    HW246989   4.134   4.095   4.316
14048SOL     OW46990   5.374   5.181   4.800
14048SOL    HW146991   5.304   5.162   4.738
14048SOL    HW246992   5.370   5.110   4.864
14049SOL     OW46993   4.111   4.264   4.978
14049SOL    HW146994   4.169   4.191   4.998
14049SOL    HW246995   4.082   4.247   4.888
14050SOL     OW46996   4.549   5.294   4.390
14050SOL    HW146997   4.497   5.329   4.318
14050SOL    HW246998   4.494   5.225   4.428
14051SOL     OW46999   5.138   3.941   4.819
14051SOL    HW147000   5.146   3.848   4.839
14051SOL    HW247001   5.097   3.978   4.897
14052SOL     OW47002   4.730   3.747   4.848
14052SOL    HW147003   4.689   3.681   4.792
14052SOL    HW247004   4.817   3.712   4.867
14053SOL     OW47005   4.506   5.054   4.072
14053SOL    HW147006   4.486   4.961   4.085
14053SOL    HW247007   4.588   5.067   4.121
14054SOL     OW47008   4.315   5.303   5.001
14054SOL    HW147009   4.323   5.378   5.060
14054SOL    HW247010   4.386   5.315   4.938
14055SOL     OW47011   5.091   3.770   3.913
14055SOL    HW147012   5.136   3.698   3.869
14055SOL    HW247013   5.000   3.740   3.919
14056SOL     OW47014   4.950   4.193   4.393
14056SOL    HW147015   4.916   4.281   4.404
14056SOL    HW247016   4.980   4.168   4.481
14057SOL     OW47017   5.313   3.902   4.605
14057SOL    HW147018   5.254   3.924   4.677
14057SOL    HW247019   5.315   3.979   4.550
14058SOL     OW47020   3.774   4.785   4.023
14058SOL    HW147021   3.869   4.779   4.015
14058SOL    HW247022   3.745   4.694   4.034
14059SOL     OW47023   4.606   5.407   4.060
14059SOL    HW147024   4.529   5.392   4.004
14059SOL    HW247025   4.579   5.478   4.118
14060SOL     OW47026   3.916   4.374   5.733
14060SOL    HW147027   3.833   4.338   5.766
14060SOL    HW247028   3.917   4.350   5.640
14061SOL     OW47029   3.923   3.999   6.561
14061SOL    HW147030   3.972   3.965   6.635
14061SOL    HW247031   3.840   3.951   6.562
14062SOL     OW47032   3.685   4.142   6.232
14062SOL    HW147033   3.607   4.155   6.285
14062SOL    HW247034   3.652   4.111   6.148
14063SOL     OW47035   4.309   5.043   6.810
14063SOL    HW147036   4.230   5.040   6.755
14063SOL    HW247037   4.320   5.136   6.831
14064SOL     OW47038   5.311   5.257   6.302
14064SOL    HW147039   5.261   5.244   6.383
14064SOL    HW247040   5.243   5.267   6.234
14065SOL     OW47041   4.854   4.431   6.270
14065SOL    HW147042   4.900   4.515   6.267
14065SOL    HW247043   4.794   4.440   6.344
14066SOL     OW47044   5.514   4.304   5.825
14066SOL    HW147045   5.485   4.306   5.733
14066SOL    HW247046   5.475   4.224   5.860
14067SOL     OW47047   4.448   4.859   6.646
14067SOL    HW147048   4.389   4.894   6.713
14067SOL    HW247049   4.482   4.936   6.601
14068SOL     OW47050   4.644   4.450   7.423
14068SOL    HW147051   4.643   4.513   7.495
14068SOL    HW247052   4.655   4.503   7.344
14069SOL     OW47053   4.410   4.695   6.226
14069SOL    HW147054   4.474   4.702   6.296
14069SOL    HW247055   4.343   4.759   6.248
14070SOL     OW47056   4.091   5.109   6.648
14070SOL    HW147057   4.017   5.050   6.632
14070SOL    HW247058   4.103   5.155   6.565
14071SOL     OW47059   5.182   5.242   6.958
14071SOL    HW147060   5.243   5.316   6.968
14071SOL    HW247061   5.111   5.261   7.019
14072SOL     OW47062   4.162   4.051   7.026
14072SOL    HW147063   4.238   3.999   7.052
14072SOL    HW247064   4.097   4.033   7.094
14073SOL     OW47065   5.286   4.129   6.312
14073SOL    HW147066   5.192   4.134   6.295
14073SOL    HW247067   5.325   4.190   6.250
14074SOL     OW47068   3.962   5.451   6.086
14074SOL    HW147069   4.033   5.459   6.023
14074SOL    HW247070   3.882   5.449   6.033
14075SOL     OW47071   4.907   5.072   7.263
14075SOL    HW147072   4.986   5.055   7.314
14075SOL    HW247073   4.858   4.989   7.266
14076SOL     OW47074   3.944   5.163   6.101
14076SOL    HW147075   3.938   5.254   6.129
14076SOL    HW247076   3.903   5.113   6.171
14077SOL     OW47077   4.069   4.797   6.493
14077SOL    HW147078   4.052   4.705   6.516
14077SOL    HW247079   3.999   4.845   6.537
14078SOL     OW47080   4.292   5.552   7.004
14078SOL    HW147081   4.214   5.524   7.052
14078SOL    HW247082   4.328   5.624   7.057
14079SOL     OW47083   4.328   4.697   5.731
14079SOL    HW147084   4.368   4.751   5.662
14079SOL    HW247085   4.362   4.733   5.813
14080SOL     OW47086   5.300   3.866   7.009
14080SOL    HW147087   5.351   3.883   6.930
14080SOL    HW247088   5.296   3.951   7.053
14081SOL     OW47089   3.843   4.379   6.158
14081SOL    HW147090   3.794   4.301   6.184
14081SOL    HW247091   3.838   4.438   6.234
14082SOL     OW47092   5.589   5.458   5.908
14082SOL    HW147093   5.662   5.438   5.966
14082SOL    HW247094   5.597   5.552   5.889
14083SOL     OW47095   3.756   5.287   5.720
14083SOL    HW147096   3.677   5.236   5.708
14083SOL    HW247097   3.745   5.327   5.806
14084SOL     OW47098   5.424   4.650   6.253
14084SOL    HW147099   5.506   4.604   6.234
14084SOL    HW247100   5.404   4.698   6.173
14085SOL     OW47101   5.384   4.835   6.037
14085SOL    HW147102   5.473   4.831   6.000
14085SOL    HW247103   5.391   4.896   6.110
14086SOL     OW47104   3.843   4.428   7.180
14086SOL    HW147105   3.931   4.464   7.193
14086SOL    HW247106   3.788   4.505   7.167
14087SOL     OW47107   4.329   5.120   6.334
14087SOL    HW147108   4.288   5.034   6.325
14087SOL    HW247109   4.339   5.152   6.245
14088SOL     OW47110   4.990   4.910   6.997
14088SOL    HW147111   5.021   4.827   6.960
14088SOL    HW247112   5.053   4.929   7.067
14089SOL     OW47113   4.545   3.767   6.094
14089SOL    HW147114   4.583   3.849   6.064
14089SOL    HW247115   4.452   3.786   6.104
14090SOL     OW47116   3.937   4.679   6.921
14090SOL    HW147117   4.018   4.638   6.891
14090SOL    HW247118   3.870   4.649   6.859
14091SOL     OW47119   5.274   4.744   5.794
14091SOL    HW147120   5.205   4.683   5.820
14091SOL    HW247121   5.314   4.772   5.876
14092SOL     OW47122   4.880   5.556   7.225
14092SOL    HW147123   4.893   5.624   7.159
14092SOL    HW247124   4.928   5.481   7.192
14093SOL     OW47125   4.096   4.056   7.399
14093SOL    HW147126   4.131   4.107   7.472
14093SOL    HW247127   4.007   4.089   7.387
14094SOL     OW47128   5.185   5.155   6.536
14094SOL    HW147129   5.120   5.173   6.603
14094SOL    HW247130   5.155   5.074   6.493
14095SOL     OW47131   5.355   5.561   6.133
14095SOL    HW147132   5.349   5.497   6.062
14095SOL    HW247133   5.362   5.507   6.212
14096SOL     OW47134   4.310   4.436   5.861
14096SOL    HW147135   4.308   4.521   5.817
14096SOL    HW247136   4.243   4.443   5.929
14097SOL     OW47137   5.010   4.116   6.529
14097SOL    HW147138   4.922   4.079   6.528
14097SOL    HW247139   5.063   4.053   6.578
14098SOL     OW47140   5.319   5.392   5.915
14098SOL    HW147141   5.414   5.399   5.906
14098SOL    HW247142   5.287   5.379   5.826
14099SOL     OW47143   4.534   4.332   7.012
14099SOL    HW147144   4.517   4.298   7.100
14099SOL    HW247145   4.510   4.260   6.953
14100SOL     OW47146   5.147   4.176   7.282
14100SOL    HW147147   5.149   4.213   7.370
14100SOL    HW247148   5.234   4.138   7.270
14101SOL     OW47149   4.688   4.607   7.187
14101SOL    HW147150   4.738   4.540   7.141
14101SOL    HW247151   4.627   4.641   7.121
14102SOL     OW47152   4.755   4.127   6.775
14102SOL    HW147153   4.664   4.133   6.802
14102SOL    HW247154   4.752   4.082   6.691
14103SOL     OW47155   4.788   4.431   5.998
14103SOL    HW147156   4.804   4.425   6.092
14103SOL    HW247157   4.702   4.391   5.986
14104SOL     OW47158   3.832   4.551   6.371
14104SOL    HW147159   3.907   4.545   6.430
14104SOL    HW247160   3.778   4.621   6.407
14105SOL     OW47161   3.836   5.601   7.215
14105SOL    HW147162   3.841   5.578   7.308
14105SOL    HW247163   3.743   5.597   7.194
14106SOL     OW47164   4.598   4.086   5.771
14106SOL    HW147165   4.659   4.125   5.710
14106SOL    HW247166   4.549   4.022   5.719
14107SOL     OW47167   5.441   4.275   7.414
14107SOL    HW147168   5.406   4.357   7.382
14107SOL    HW247169   5.432   4.214   7.341
14108SOL     OW47170   5.107   4.869   6.116
14108SOL    HW147171   5.191   4.859   6.070
14108SOL    HW247172   5.061   4.938   6.068
14109SOL     OW47173   4.269   3.907   6.471
14109SOL    HW147174   4.292   3.925   6.563
14109SOL    HW247175   4.256   3.994   6.433
14110SOL     OW47176   4.730   5.198   6.054
14110SOL    HW147177   4.709   5.268   5.992
14110SOL    HW247178   4.691   5.227   6.137
14111SOL     OW47179   5.498   4.758   6.503
14111SOL    HW147180   5.469   4.746   6.412
14111SOL    HW247181   5.416   4.762   6.553
14112SOL     OW47182   4.947   5.295   7.099
14112SOL    HW147183   4.939   5.217   7.153
14112SOL    HW247184   4.857   5.316   7.072
14113SOL     OW47185   3.907   4.660   5.814
14113SOL    HW147186   3.968   4.680   5.743
14113SOL    HW247187   3.904   4.565   5.817
14114SOL     OW47188   5.204   4.490   6.305
14114SOL    HW147189   5.205   4.439   6.387
14114SOL    HW247190   5.286   4.538   6.306
14115SOL     OW47191   4.152   4.904   7.312
14115SOL    HW147192   4.154   4.933   7.221
14115SOL    HW247193   4.071   4.942   7.347
14116SOL     OW47194   4.888   5.496   5.811
14116SOL    HW147195   4.802   5.477   5.847
14116SOL    HW247196   4.913   5.416   5.765
14117SOL     OW47197   3.888   3.998   7.124
14117SOL    HW147198   3.812   4.015   7.069
14117SOL    HW247199   3.889   3.903   7.136
14118SOL     OW47200   5.385   5.125   5.693
14118SOL    HW147201   5.341   5.208   5.677
14118SOL    HW247202   5.326   5.059   5.657
14119SOL     OW47203   4.185   5.502   5.926
14119SOL    HW147204   4.233   5.552   5.992
14119SOL    HW247205   4.253   5.456   5.877
14120SOL     OW47206   5.120   3.824   6.043
14120SOL    HW147207   5.120   3.800   5.950
14120SOL    HW247208   5.201   3.787   6.078
14121SOL     OW47209   4.021   5.518   6.677
14121SOL    HW147210   4.027   5.445   6.738
14121SOL    HW247211   3.936   5.507   6.633
14122SOL     OW47212   4.645   5.425   6.462
14122SOL    HW147213   4.730   5.381   6.464
14122SOL    HW247214   4.600   5.387   6.387
14123SOL     OW47215   4.111   4.398   6.060
14123SOL    HW147216   4.136   4.305   6.067
14123SOL    HW247217   4.018   4.399   6.081
14124SOL     OW47218   4.329   3.803   5.666
14124SOL    HW147219   4.363   3.717   5.693
14124SOL    HW247220   4.267   3.784   5.596
14125SOL     OW47221   4.484   3.987   7.340
14125SOL    HW147222   4.567   3.940   7.335
14125SOL    HW247223   4.439   3.949   7.416
14126SOL     OW47224   4.599   5.243   6.791
14126SOL    HW147225   4.568   5.211   6.706
14126SOL    HW247226   4.666   5.180   6.817
14127SOL     OW47227   5.064   4.297   7.050
14127SOL    HW147228   5.077   4.248   7.131
14127SOL    HW247229   5.142   4.351   7.041
14128SOL     OW47230   4.521   5.116   6.546
14128SOL    HW147231   4.608   5.111   6.506
14128SOL    HW247232   4.460   5.120   6.471
14129SOL     OW47233   4.645   4.238   6.458
14129SOL    HW147234   4.621   4.228   6.366
14129SOL    HW247235   4.678   4.152   6.483
14130SOL     OW47236   4.269   3.822   6.091
14130SOL    HW147237   4.189   3.829   6.142
14130SOL    HW247238   4.254   3.878   6.015
14131SOL     OW47239   5.194   4.939   5.612
14131SOL    HW147240   5.225   4.864   5.663
14131SOL    HW247241   5.109   4.961   5.651
14132SOL     OW47242   3.998   3.785   5.790
14132SOL    HW147243   4.049   3.860   5.760
14132SOL    HW247244   4.062   3.727   5.832
14133SOL     OW47245   4.679   3.997   6.022
14133SOL    HW147246   4.655   4.023   5.933
14133SOL    HW247247   4.774   4.004   6.024
14134SOL     OW47248   4.813   4.419   7.024
14134SOL    HW147249   4.741   4.356   7.028
14134SOL    HW247250   4.892   4.366   7.034
14135SOL     OW47251   4.902   5.337   6.397
14135SOL    HW147252   4.937   5.386   6.322
14135SOL    HW247253   4.944   5.377   6.473
14136SOL     OW47254   4.207   4.879   6.275
14136SOL    HW147255   4.159   4.850   6.353
14136SOL    HW247256   4.144   4.868   6.204
14137SOL     OW47257   4.975   5.527   6.202
14137SOL    HW147258   5.023   5.589   6.148
14137SOL    HW247259   4.907   5.580   6.245
14138SOL     OW47260   4.765   4.231   5.606
14138SOL    HW147261   4.720   4.315   5.594
14138SOL    HW247262   4.823   4.247   5.681
14139SOL     OW47263   3.845   4.280   6.948
14139SOL    HW147264   3.939   4.275   6.932
14139SOL    HW247265   3.836   4.330   7.028
14140SOL     OW47266   4.330   3.933   6.740
14140SOL    HW147267   4.366   3.845   6.746
14140SOL    HW247268   4.239   3.924   6.767
14141SOL     OW47269   4.589   4.194   6.195
14141SOL    HW147270   4.557   4.248   6.124
14141SOL    HW247271   4.621   4.114   6.152
14142SOL     OW47272   4.734   3.791   6.309
14142SOL    HW147273   4.674   3.786   6.235
14142SOL    HW247274   4.712   3.714   6.362
14143SOL     OW47275   5.159   4.904   6.412
14143SOL    HW147276   5.094   4.872   6.349
14143SOL    HW247277   5.236   4.925   6.358
14144SOL     OW47278   5.169   4.352   6.550
14144SOL    HW147279   5.122   4.269   6.540
14144SOL    HW247280   5.238   4.333   6.615
14145SOL     OW47281   5.565   4.515   5.994
14145SOL    HW147282   5.631   4.471   6.048
14145SOL    HW247283   5.546   4.453   5.924
14146SOL     OW47284   4.214   5.158   5.799
14146SOL    HW147285   4.126   5.126   5.822
14146SOL    HW247286   4.241   5.102   5.726
14147SOL     OW47287   5.383   4.985   6.274
14147SOL    HW147288   5.477   4.968   6.277
14147SOL    HW247289   5.376   5.081   6.275
14148SOL     OW47290   5.112   4.273   5.651
14148SOL    HW147291   5.044   4.263   5.718
14148SOL    HW247292   5.175   4.204   5.671
14149SOL     OW47293   4.246   3.982   5.867
14149SOL    HW147294   4.281   3.927   5.797
14149SOL    HW247295   4.213   4.060   5.822
14150SOL     OW47296   5.443   4.986   7.128
14150SOL    HW147297   5.527   4.942   7.115
14150SOL    HW247298   5.466   5.073   7.158
14151SOL     OW47299   4.774   5.047   6.894
14151SOL    HW147300   4.695   5.025   6.943
14151SOL    HW247301   4.845   5.006   6.944
14152SOL     OW47302   5.321   5.373   7.253
14152SOL    HW147303   5.315   5.411   7.166
14152SOL    HW247304   5.399   5.317   7.250
14153SOL     OW47305   4.872   4.926   6.663
14153SOL    HW147306   4.828   4.963   6.739
14153SOL    HW247307   4.839   4.976   6.589
14154SOL     OW47308   5.261   4.821   6.653
14154SOL    HW147309   5.282   4.889   6.717
14154SOL    HW247310   5.246   4.868   6.571
14155SOL     OW47311   4.632   3.834   6.954
14155SOL    HW147312   4.659   3.829   6.862
14155SOL    HW247313   4.713   3.854   7.001
14156SOL     OW47314   4.741   4.854   7.299
14156SOL    HW147315   4.655   4.890   7.319
14156SOL    HW247316   4.723   4.771   7.255
14157SOL     OW47317   4.459   4.788   5.963
14157SOL    HW147318   4.438   4.752   6.049
14157SOL    HW247319   4.537   4.741   5.935
14158SOL     OW47320   4.169   4.540   6.853
14158SOL    HW147321   4.227   4.546   6.929
14158SOL    HW247322   4.143   4.448   6.850
14159SOL     OW47323   5.002   4.073   6.883
14159SOL    HW147324   5.024   4.151   6.934
14159SOL    HW247325   4.917   4.093   6.844
14160SOL     OW47326   3.817   5.296   6.963
14160SOL    HW147327   3.760   5.346   6.905
14160SOL    HW247328   3.905   5.311   6.928
14161SOL     OW47329   4.012   4.838   6.070
14161SOL    HW147330   4.010   4.904   6.001
14161SOL    HW247331   4.003   4.755   6.024
14162SOL     OW47332   4.259   4.202   6.423
14162SOL    HW147333   4.265   4.272   6.358
14162SOL    HW247334   4.321   4.228   6.492
14163SOL     OW47335   4.978   5.088   5.994
14163SOL    HW147336   5.035   5.158   6.029
14163SOL    HW247337   4.890   5.115   6.020
14164SOL     OW47338   5.009   5.201   6.751
14164SOL    HW147339   5.073   5.212   6.821
14164SOL    HW247340   4.936   5.155   6.792
14165SOL     OW47341   5.327   4.322   6.111
14165SOL    HW147342   5.264   4.375   6.158
14165SOL    HW247343   5.375   4.384   6.055
14166SOL     OW47344   4.067   5.296   6.845
14166SOL    HW147345   4.065   5.226   6.780
14166SOL    HW247346   4.161   5.309   6.862
14167SOL     OW47347   4.127   4.470   7.223
14167SOL    HW147348   4.197   4.502   7.167
14167SOL    HW247349   4.149   4.378   7.238
14168SOL     OW47350   5.347   4.501   7.289
14168SOL    HW147351   5.263   4.540   7.265
14168SOL    HW247352   5.405   4.523   7.216
14169SOL     OW47353   4.717   3.851   7.332
14169SOL    HW147354   4.788   3.914   7.320
14169SOL    HW247355   4.755   3.767   7.308
14170SOL     OW47356   4.197   3.801   7.426
14170SOL    HW147357   4.174   3.738   7.358
14170SOL    HW247358   4.162   3.884   7.395
14171SOL     OW47359   4.327   4.589   6.628
14171SOL    HW147360   4.351   4.682   6.625
14171SOL    HW247361   4.269   4.582   6.704
14172SOL     OW47362   4.990   4.554   6.597
14172SOL    HW147363   4.904   4.522   6.571
14172SOL    HW247364   5.050   4.482   6.577
14173SOL     OW47365   4.916   4.245   5.840
14173SOL    HW147366   4.932   4.170   5.898
14173SOL    HW247367   4.876   4.311   5.897
14174SOL     OW47368   4.057   3.919   6.791
14174SOL    HW147369   4.057   3.947   6.883
14174SOL    HW247370   4.033   3.826   6.795
14175SOL     OW47371   3.826   5.034   6.865
14175SOL    HW147372   3.836   4.980   6.944
14175SOL    HW247373   3.803   5.121   6.899
14176SOL     OW47374   4.424   4.327   6.608
14176SOL    HW147375   4.499   4.318   6.549
14176SOL    HW247376   4.400   4.420   6.603
14177SOL     OW47377   5.486   4.691   7.445
14177SOL    HW147378   5.434   4.619   7.408
14177SOL    HW247379   5.437   4.719   7.522
14178SOL     OW47380   3.988   3.804   6.224
14178SOL    HW147381   3.963   3.737   6.161
14178SOL    HW247382   4.026   3.756   6.297
14179SOL     OW47383   5.368   4.095   5.948
14179SOL    HW147384   5.409   4.030   6.005
14179SOL    HW247385   5.338   4.163   6.008
14180SOL     OW47386   4.727   4.482   6.544
14180SOL    HW147387   4.700   4.491   6.636
14180SOL    HW247388   4.702   4.392   6.521
14181SOL     OW47389   4.703   5.247   7.315
14181SOL    HW147390   4.690   5.299   7.235
14181SOL    HW247391   4.769   5.182   7.292
14182SOL     OW47392   5.555   5.237   7.179
14182SOL    HW147393   5.583   5.263   7.091
14182SOL    HW247394   5.634   5.244   7.232
14183SOL     OW47395   4.067   4.657   7.421
14183SOL    HW147396   4.116   4.730   7.382
14183SOL    HW247397   4.088   4.582   7.365
14184SOL     OW47398   5.225   4.017   5.718
14184SOL    HW147399   5.179   3.937   5.744
14184SOL    HW247400   5.279   4.040   5.793
14185SOL     OW47401   5.020   4.536   5.609
14185SOL    HW147402   5.054   4.447   5.613
14185SOL    HW247403   5.052   4.570   5.525
14186SOL     OW47404   4.780   5.095   6.457
14186SOL    HW147405   4.796   5.023   6.397
14186SOL    HW247406   4.832   5.167   6.423
14187SOL     OW47407   4.055   4.522   6.538
14187SOL    HW147408   4.150   4.529   6.532
14187SOL    HW247409   4.039   4.431   6.562
14188SOL     OW47410   4.037   4.244   6.584
14188SOL    HW147411   3.989   4.162   6.577
14188SOL    HW247412   4.111   4.233   6.525
14189SOL     OW47413   4.891   4.064   7.275
14189SOL    HW147414   4.841   4.112   7.341
14189SOL    HW247415   4.981   4.097   7.283
14190SOL     OW47416   4.883   3.888   7.060
14190SOL    HW147417   4.883   3.950   7.134
14190SOL    HW247418   4.935   3.932   6.993
14191SOL     OW47419   3.709   4.945   5.764
14191SOL    HW147420   3.645   5.016   5.766
14191SOL    HW247421   3.696   4.905   5.677
14192SOL     OW47422   3.816   5.498   6.492
14192SOL    HW147423   3.765   5.421   6.469
14192SOL    HW247424   3.867   5.518   6.414
14193SOL     OW47425   4.220   5.332   6.479
14193SOL    HW147426   4.301   5.351   6.526
14193SOL    HW247427   4.242   5.260   6.420
14194SOL     OW47428   4.654   4.506   6.809
14194SOL    HW147429   4.723   4.488   6.874
14194SOL    HW247430   4.580   4.453   6.837
14195SOL     OW47431   3.761   4.307   6.689
14195SOL    HW147432   3.838   4.295   6.634
14195SOL    HW247433   3.793   4.300   6.779
14196SOL     OW47434   3.825   4.177   7.322
14196SOL    HW147435   3.849   4.115   7.253
14196SOL    HW247436   3.813   4.260   7.276
14197SOL     OW47437   5.112   4.632   7.214
14197SOL    HW147438   5.143   4.722   7.211
14197SOL    HW247439   5.030   4.634   7.163
14198SOL     OW47440   4.546   4.307   5.942
14198SOL    HW147441   4.553   4.232   5.883
14198SOL    HW247442   4.466   4.352   5.915
14199SOL     OW47443   5.361   4.322   6.759
14199SOL    HW147444   5.342   4.250   6.818
14199SOL    HW247445   5.453   4.311   6.735
14200SOL     OW47446   3.999   5.284   7.357
14200SOL    HW147447   3.945   5.347   7.404
14200SOL    HW247448   3.961   5.199   7.378
14201SOL     OW47449   4.480   4.153   6.812
14201SOL    HW147450   4.430   4.072   6.800
14201SOL    HW247451   4.450   4.210   6.742
14202SOL     OW47452   4.679   5.368   7.045
14202SOL    HW147453   4.647   5.331   6.963
14202SOL    HW247454   4.671   5.463   7.034
14203SOL     OW47455   4.153   4.227   5.763
14203SOL    HW147456   4.222   4.289   5.785
14203SOL    HW247457   4.073   4.279   5.764
14204SOL     OW47458   3.886   4.882   7.096
14204SOL    HW147459   3.869   4.841   7.181
14204SOL    HW247460   3.905   4.808   7.037
14205SOL     OW47461   5.060   4.583   5.879
14205SOL    HW147462   4.992   4.539   5.929
14205SOL    HW247463   5.041   4.561   5.788
14206SOL     OW47464   5.491   5.456   6.728
14206SOL    HW147465   5.559   5.485   6.666
14206SOL    HW247466   5.474   5.365   6.704
14207SOL     OW47467   4.980   5.452   6.637
14207SOL    HW147468   5.070   5.486   6.628
14207SOL    HW247469   4.991   5.369   6.684
14208SOL     OW47470   3.870   4.945   6.611
14208SOL    HW147471   3.840   4.973   6.697
14208SOL    HW247472   3.792   4.909   6.568
14209SOL     OW47473   4.400   5.388   7.315
14209SOL    HW147474   4.345   5.466   7.313
14209SOL    HW247475   4.482   5.415   7.275
14210SOL     OW47476   5.527   3.891   6.087
14210SOL    HW147477   5.560   3.877   5.998
14210SOL    HW247478   5.467   3.818   6.102
14211SOL     OW47479   5.124   5.305   6.098
14211SOL    HW147480   5.183   5.337   6.030
14211SOL    HW247481   5.070   5.381   6.120
14212SOL     OW47482   3.873   5.502   7.476
14212SOL    HW147483   3.801   5.481   7.536
14212SOL    HW247484   3.933   5.555   7.528
14213SOL     OW47485   5.000   4.666   6.259
14213SOL    HW147486   5.072   4.604   6.272
14213SOL    HW247487   5.032   4.727   6.193
14214SOL     OW47488   4.509   4.998   7.001
14214SOL    HW147489   4.471   5.037   7.080
14214SOL    HW247490   4.442   5.010   6.934
14215SOL     OW47491   4.386   5.376   5.772
14215SOL    HW147492   4.399   5.378   5.677
14215SOL    HW247493   4.335   5.296   5.787
14216SOL     OW47494   5.343   5.470   6.983
14216SOL    HW147495   5.393   5.470   6.901
14216SOL    HW247496   5.329   5.563   7.003
14217SOL     OW47497   5.620   3.894   6.438
14217SOL    HW147498   5.632   3.806   6.473
14217SOL    HW247499   5.532   3.919   6.467
14218SOL     OW47500   4.958   5.277   5.660
14218SOL    HW147501   4.958   5.185   5.686
14218SOL    HW247502   4.879   5.286   5.607
14219SOL     OW47503   4.540   4.720   6.984
14219SOL    HW147504   4.567   4.696   6.896
14219SOL    HW247505   4.531   4.816   6.981
14220SOL     OW47506   4.682   4.662   5.876
14220SOL    HW147507   4.745   4.694   5.812
14220SOL    HW247508   4.724   4.585   5.914
14221SOL     OW47509   5.222   5.370   5.651
14221SOL    HW147510   5.132   5.336   5.643
14221SOL    HW247511   5.252   5.377   5.560
14222SOL     OW47512   4.098   5.071   7.087
14222SOL    HW147513   4.081   5.136   7.018
14222SOL    HW247514   4.023   5.013   7.084
14223SOL     OW47515   5.303   5.017   6.838
14223SOL    HW147516   5.388   5.010   6.883
14223SOL    HW247517   5.256   5.085   6.885
14224SOL     OW47518   4.810   4.851   6.340
14224SOL    HW147519   4.730   4.805   6.364
14224SOL    HW247520   4.867   4.784   6.303
14225SOL     OW47521   4.762   3.984   6.520
14225SOL    HW147522   4.756   3.937   6.436
14225SOL    HW247523   4.750   3.915   6.586
14226SOL     OW47524   4.351   5.213   6.071
14226SOL    HW147525   4.404   5.160   6.012
14226SOL    HW247526   4.266   5.219   6.028
14227SOL     OW47527   5.484   4.113   6.935
14227SOL    HW147528   5.546   4.170   6.890
14227SOL    HW247529   5.489   4.030   6.887
14228SOL     OW47530   3.958   5.039   5.860
14228SOL    HW147531   3.869   5.013   5.836
14228SOL    HW247532   3.948   5.092   5.939
14229SOL     OW47533   3.827   4.776   7.345
14229SOL    HW147534   3.745   4.741   7.380
14229SOL    HW247535   3.894   4.717   7.380
14230SOL     OW47536   4.391   3.892   7.090
14230SOL    HW147537   4.471   3.879   7.040
14230SOL    HW247538   4.421   3.927   7.174
14231SOL     OW47539   3.767   4.044   5.608
14231SOL    HW147540   3.716   4.002   5.538
14231SOL    HW247541   3.737   4.135   5.607
14232SOL     OW47542   5.069   4.668   6.879
14232SOL    HW147543   5.022   4.585   6.890
14232SOL    HW247544   5.161   4.645   6.888
14233SOL     OW47545   3.753   3.888   5.848
14233SOL    HW147546   3.737   3.948   5.775
14233SOL    HW247547   3.843   3.858   5.835
14234SOL     OW47548   4.949   5.005   5.729
14234SOL    HW147549   4.911   4.917   5.727
14234SOL    HW247550   4.958   5.025   5.822
14235SOL     OW47551   4.347   4.537   7.062
14235SOL    HW147552   4.405   4.611   7.045
14235SOL    HW247553   4.404   4.460   7.054
14236SOL     OW47554   5.242   5.526   6.600
14236SOL    HW147555   5.259   5.605   6.547
14236SOL    HW247556   5.325   5.509   6.644
14237SOL     OW47557   4.488   4.256   7.267
14237SOL    HW147558   4.528   4.302   7.340
14237SOL    HW247559   4.481   4.165   7.296
14238SOL     OW47560   5.190   4.897   7.200
14238SOL    HW147561   5.187   4.916   7.293
14238SOL    HW247562   5.276   4.928   7.172
14239SOL     OW47563   4.075   5.471   7.163
14239SOL    HW147564   3.991   5.516   7.159
14239SOL    HW247565   4.057   5.392   7.215
14240SOL     OW47566   5.333   4.585   6.849
14240SOL    HW147567   5.344   4.497   6.815
14240SOL    HW247568   5.350   4.643   6.774
14241SOL     OW47569   4.954   4.050   6.036
14241SOL    HW147570   5.010   3.972   6.036
14241SOL    HW247571   4.978   4.096   6.116
14242SOL     OW47572   4.286   4.439   6.275
14242SOL    HW147573   4.334   4.519   6.257
14242SOL    HW247574   4.224   4.432   6.202
14243SOL     OW47575   5.414   4.094   7.204
14243SOL    HW147576   5.443   4.112   7.114
14243SOL    HW247577   5.473   4.025   7.235
14244SOL     OW47578   5.505   4.583   7.077
14244SOL    HW147579   5.537   4.672   7.092
14244SOL    HW247580   5.452   4.590   6.997
14245SOL     OW47581   4.522   5.119   5.646
14245SOL    HW147582   4.529   5.110   5.741
14245SOL    HW247583   4.585   5.189   5.625
14246SOL     OW47584   4.401   5.545   6.532
14246SOL    HW147585   4.417   5.639   6.526
14246SOL    HW247586   4.487   5.505   6.517
14247SOL     OW47587   4.591   4.712   6.444
14247SOL    HW147588   4.630   4.631   6.477
14247SOL    HW247589   4.542   4.747   6.518
14248SOL     OW47590   4.854   4.751   5.677
14248SOL    HW147591   4.800   4.770   5.600
14248SOL    HW247592   4.908   4.677   5.650
14249SOL     OW47593   5.576   5.256   6.384
14249SOL    HW147594   5.490   5.267   6.343
14249SOL    HW247595   5.558   5.221   6.471
14250SOL     OW47596   3.928   5.023   7.415
14250SOL    HW147597   3.869   4.949   7.397
14250SOL    HW247598   3.924   5.033   7.510
14251SOL     OW47599   3.837   4.960   6.267
14251SOL    HW147600   3.804   4.903   6.337
14251SOL    HW247601   3.893   4.903   6.214
14252SOL     OW47602   4.341   5.120   7.229
14252SOL    HW147603   4.260   5.122   7.177
14252SOL    HW247604   4.358   5.212   7.250
14253SOL     OW47605   5.468   3.879   6.787
14253SOL    HW147606   5.494   3.787   6.785
14253SOL    HW247607   5.442   3.898   6.696
14254SOL     OW47608   4.203   4.143   6.096
14254SOL    HW147609   4.221   4.088   6.020
14254SOL    HW247610   4.261   4.109   6.164
14255SOL     OW47611   5.445   5.198   6.633
14255SOL    HW147612   5.355   5.185   6.605
14255SOL    HW247613   5.459   5.133   6.701
14256SOL     OW47614   4.109   4.271   6.864
14256SOL    HW147615   4.140   4.195   6.914
14256SOL    HW247616   4.100   4.239   6.774
14257SOL     OW47617   4.544   5.351   6.219
14257SOL    HW147618   4.549   5.436   6.176
14257SOL    HW247619   4.473   5.305   6.174
14258SOL     OW47620   5.147   3.932   6.684
14258SOL    HW147621   5.151   3.836   6.692
14258SOL    HW247622   5.104   3.960   6.765
14259SOL     OW47623   4.725   3.780   6.699
14259SOL    HW147624   4.647   3.738   6.662
14259SOL    HW247625   4.792   3.711   6.696
14260SOL     OW47626   4.522   5.057   5.918
14260SOL    HW147627   4.498   4.965   5.931
14260SOL    HW247628   4.603   5.067   5.968
14261SOL     OW47629   4.343   5.313   6.874
14261SOL    HW147630   4.337   5.399   6.918
14261SOL    HW247631   4.435   5.305   6.848
14262SOL     OW47632   5.107   3.767   5.769
14262SOL    HW147633   5.151   3.695   5.724
14262SOL    HW247634   5.019   3.735   5.786
14263SOL     OW47635   5.013   4.196   6.265
14263SOL    HW147636   4.962   4.277   6.258
14263SOL    HW247637   5.003   4.169   6.356
14264SOL     OW47638   5.370   3.968   6.525
14264SOL    HW147639   5.288   3.956   6.574
14264SOL    HW247640   5.345   4.022   6.450
14265SOL     OW47641   4.633   5.415   5.906
14265SOL    HW147642   4.551   5.395   5.860
14265SOL    HW247643   4.608   5.484   5.968
14266SOL     OW47644   3.914   4.295   7.561
14266SOL    HW147645   3.833   4.286   7.611
14266SOL    HW247646   3.890   4.270   7.472
14267SOL     OW47647   3.927   3.990   8.417
14267SOL    HW147648   3.957   3.967   8.505
14267SOL    HW247649   3.836   3.959   8.415
14268SOL     OW47650   3.713   4.106   8.102
14268SOL    HW147651   3.660   4.116   8.181
14268SOL    HW247652   3.667   4.040   8.050
14269SOL     OW47653   4.324   5.037   8.654
14269SOL    HW147654   4.240   5.041   8.610
14269SOL    HW247655   4.344   5.128   8.678
14270SOL     OW47656   5.306   5.232   8.169
14270SOL    HW147657   5.262   5.210   8.251
14270SOL    HW247658   5.235   5.239   8.105
14271SOL     OW47659   4.857   4.422   8.130
14271SOL    HW147660   4.907   4.504   8.129
14271SOL    HW247661   4.813   4.422   8.215
14272SOL     OW47662   5.544   4.305   7.669
14272SOL    HW147663   5.507   4.310   7.581
14272SOL    HW247664   5.493   4.237   7.713
14273SOL     OW47665   4.454   4.838   8.504
14273SOL    HW147666   4.402   4.880   8.573
14273SOL    HW247667   4.496   4.911   8.458
14274SOL     OW47668   4.588   4.473   9.286
14274SOL    HW147669   4.614   4.534   9.356
14274SOL    HW247670   4.614   4.517   9.205
14275SOL     OW47671   4.380   4.657   8.136
14275SOL    HW147672   4.462   4.663   8.185
14275SOL    HW247673   4.339   4.742   8.147
14276SOL     OW47674   4.445   4.886   9.278
14276SOL    HW147675   4.493   4.957   9.321
14276SOL    HW247676   4.367   4.928   9.243
14277SOL     OW47677   4.098   5.126   8.518
14277SOL    HW147678   4.013   5.091   8.490
14277SOL    HW247679   4.124   5.185   8.447
14278SOL     OW47680   5.191   5.220   8.797
14278SOL    HW147681   5.242   5.300   8.805
14278SOL    HW247682   5.124   5.227   8.865
14279SOL     OW47683   4.162   4.109   8.936
14279SOL    HW147684   4.237   4.053   8.956
14279SOL    HW247685   4.086   4.056   8.958
14280SOL     OW47686   5.294   4.142   8.211
14280SOL    HW147687   5.213   4.151   8.161
14280SOL    HW247688   5.283   4.203   8.284
14281SOL     OW47689   3.942   5.419   7.899
14281SOL    HW147690   3.954   5.489   7.963
14281SOL    HW247691   4.030   5.401   7.866
14282SOL     OW47692   4.870   5.037   9.113
14282SOL    HW147693   4.907   5.049   9.200
14282SOL    HW247694   4.805   4.967   9.124
14283SOL     OW47695   3.925   5.089   7.951
14283SOL    HW147696   3.913   5.179   7.978
14283SOL    HW247697   3.880   5.037   8.018
14284SOL     OW47698   4.013   4.826   8.332
14284SOL    HW147699   4.009   4.742   8.377
14284SOL    HW247700   3.964   4.886   8.388
14285SOL     OW47701   4.303   5.509   8.885
14285SOL    HW147702   4.227   5.486   8.938
14285SOL    HW247703   4.327   5.597   8.914
14286SOL     OW47704   4.268   4.862   7.618
14286SOL    HW147705   4.183   4.827   7.648
14286SOL    HW247706   4.327   4.844   7.691
14287SOL     OW47707   5.265   3.876   8.886
14287SOL    HW147708   5.321   3.953   8.877
14287SOL    HW247709   5.247   3.870   8.980
14288SOL     OW47710   3.838   4.390   8.020
14288SOL    HW147711   3.800   4.305   8.044
14288SOL    HW247712   3.820   4.447   8.095
14289SOL     OW47713   5.585   5.458   7.767
14289SOL    HW147714   5.656   5.432   7.826
14289SOL    HW247715   5.587   5.554   7.767
14290SOL     OW47716   3.738   5.211   7.588
14290SOL    HW147717   3.652   5.171   7.575
14290SOL    HW247718   3.720   5.292   7.635
14291SOL     OW47719   5.418   4.596   8.094
14291SOL    HW147720   5.506   4.591   8.131
14291SOL    HW247721   5.424   4.664   8.026
14292SOL     OW47722   5.388   4.833   7.895
14292SOL    HW147723   5.472   4.823   7.850
14292SOL    HW247724   5.407   4.886   7.972
14293SOL     OW47725   3.861   4.463   9.022
14293SOL    HW147726   3.941   4.503   9.057
14293SOL    HW247727   3.795   4.532   9.027
14294SOL     OW47728   4.369   5.112   8.169
14294SOL    HW147729   4.326   5.027   8.178
14294SOL    HW247730   4.347   5.141   8.080
14295SOL     OW47731   4.997   4.901   8.887
14295SOL    HW147732   5.076   4.908   8.940
14295SOL    HW247733   4.930   4.948   8.937
14296SOL     OW47734   4.558   3.742   7.987
14296SOL    HW147735   4.591   3.830   7.968
14296SOL    HW247736   4.463   3.752   7.986
14297SOL     OW47737   3.914   4.658   8.768
14297SOL    HW147738   3.988   4.610   8.729
14297SOL    HW247739   3.843   4.594   8.769
14298SOL     OW47740   5.271   4.757   7.647
14298SOL    HW147741   5.201   4.698   7.674
14298SOL    HW247742   5.312   4.785   7.729
14299SOL     OW47743   4.913   5.506   9.012
14299SOL    HW147744   4.923   5.596   8.982
14299SOL    HW247745   4.930   5.509   9.106
14300SOL     OW47746   4.103   3.986   9.290
14300SOL    HW147747   4.137   4.059   9.342
14300SOL    HW247748   4.011   3.980   9.315
14301SOL     OW47749   5.186   5.130   8.402
14301SOL    HW147750   5.117   5.159   8.462
14301SOL    HW247751   5.157   5.044   8.372
14302SOL     OW47752   5.368   5.495   8.032
14302SOL    HW147753   5.349   5.449   7.950
14302SOL    HW247754   5.360   5.428   8.099
14303SOL     OW47755   4.283   4.409   7.797
14303SOL    HW147756   4.307   4.501   7.783
14303SOL    HW247757   4.232   4.410   7.878
14304SOL     OW47758   5.012   4.097   8.389
14304SOL    HW147759   4.928   4.052   8.389
14304SOL    HW247760   5.062   4.056   8.460
14305SOL     OW47761   5.313   5.388   7.775
14305SOL    HW147762   5.407   5.405   7.766
14305SOL    HW247763   5.283   5.375   7.685
14306SOL     OW47764   4.486   4.360   8.873
14306SOL    HW147765   4.461   4.342   8.963
14306SOL    HW247766   4.465   4.279   8.825
14307SOL     OW47767   5.111   4.172   9.176
14307SOL    HW147768   5.132   4.229   9.250
14307SOL    HW247769   5.160   4.091   9.194
14308SOL     OW47770   4.658   4.594   9.043
14308SOL    HW147771   4.712   4.526   9.002
14308SOL    HW247772   4.606   4.629   8.971
14309SOL     OW47773   4.722   4.128   8.712
14309SOL    HW147774   4.632   4.155   8.699
14309SOL    HW247775   4.716   4.040   8.748
14310SOL     OW47776   4.777   4.418   7.864
14310SOL    HW147777   4.803   4.417   7.956
14310SOL    HW247778   4.693   4.372   7.863
14311SOL     OW47779   3.805   4.571   8.223
14311SOL    HW147780   3.871   4.552   8.289
14311SOL    HW247781   3.754   4.643   8.260
14312SOL     OW47782   3.811   5.531   9.006
14312SOL    HW147783   3.820   5.552   9.099
14312SOL    HW247784   3.723   5.560   8.984
14313SOL     OW47785   4.584   4.070   7.663
14313SOL    HW147786   4.640   4.092   7.588
14313SOL    HW247787   4.530   3.997   7.632
14314SOL     OW47788   5.413   4.308   9.290
14314SOL    HW147789   5.381   4.369   9.223
14314SOL    HW247790   5.441   4.231   9.240
14315SOL     OW47791   5.126   4.876   8.013
14315SOL    HW147792   5.207   4.867   7.963
14315SOL    HW247793   5.074   4.939   7.964
14316SOL     OW47794   4.285   3.807   8.422
14316SOL    HW147795   4.285   3.832   8.515
14316SOL    HW247796   4.304   3.888   8.375
14317SOL     OW47797   4.714   5.193   7.902
14317SOL    HW147798   4.706   5.274   7.851
14317SOL    HW247799   4.682   5.217   7.989
14318SOL     OW47800   4.051   5.524   8.319
14318SOL    HW147801   4.097   5.441   8.330
14318SOL    HW247802   4.107   5.589   8.362
14319SOL     OW47803   5.525   4.796   8.335
14319SOL    HW147804   5.483   4.843   8.263
14319SOL    HW247805   5.456   4.785   8.400
14320SOL     OW47806   4.942   5.236   8.931
14320SOL    HW147807   4.926   5.180   9.007
14320SOL    HW247808   4.934   5.325   8.965
14321SOL     OW47809   4.006   4.716   7.685
14321SOL    HW147810   4.026   4.689   7.595
14321SOL    HW247811   3.967   4.638   7.724
14322SOL     OW47812   5.195   4.465   8.173
14322SOL    HW147813   5.205   4.420   8.257
14322SOL    HW247814   5.278   4.510   8.159
14323SOL     OW47815   4.213   5.011   9.185
14323SOL    HW147816   4.186   5.014   9.093
14323SOL    HW247817   4.132   4.997   9.233
14324SOL     OW47818   4.879   5.510   7.647
14324SOL    HW147819   4.798   5.491   7.696
14324SOL    HW247820   4.897   5.430   7.598
14325SOL     OW47821   3.905   4.000   8.957
14325SOL    HW147822   3.824   4.041   8.986
14325SOL    HW247823   3.895   3.907   8.979
14326SOL     OW47824   5.358   5.116   7.534
14326SOL    HW147825   5.318   5.202   7.532
14326SOL    HW247826   5.288   5.056   7.506
14327SOL     OW47827   4.205   5.431   7.792
14327SOL    HW147828   4.239   5.498   7.852
14327SOL    HW247829   4.271   5.424   7.723
14328SOL     OW47830   5.170   3.842   7.905
14328SOL    HW147831   5.199   3.756   7.874
14328SOL    HW247832   5.250   3.882   7.940
14329SOL     OW47833   3.963   5.515   8.683
14329SOL    HW147834   4.036   5.458   8.707
14329SOL    HW247835   3.885   5.462   8.700
14330SOL     OW47836   4.652   5.437   8.358
14330SOL    HW147837   4.646   5.385   8.438
14330SOL    HW247838   4.666   5.372   8.288
14331SOL     OW47839   4.121   4.410   8.039
14331SOL    HW147840   4.139   4.316   8.036
14331SOL    HW247841   4.027   4.417   8.024
14332SOL     OW47842   5.265   3.910   9.197
14332SOL    HW147843   5.252   3.929   9.290
14332SOL    HW247844   5.279   3.815   9.194
14333SOL     OW47845   4.410   3.855   7.587
14333SOL    HW147846   4.458   3.774   7.608
14333SOL    HW247847   4.335   3.826   7.536
14334SOL     OW47848   4.435   4.059   9.180
14334SOL    HW147849   4.529   4.046   9.196
14334SOL    HW247850   4.392   4.022   9.257
14335SOL     OW47851   4.612   5.268   8.571
14335SOL    HW147852   4.580   5.193   8.520
14335SOL    HW247853   4.669   5.229   8.637
14336SOL     OW47854   5.117   4.325   8.934
14336SOL    HW147855   5.086   4.264   9.001
14336SOL    HW247856   5.195   4.364   8.973
14337SOL     OW47857   4.556   5.065   8.385
14337SOL    HW147858   4.648   5.063   8.358
14337SOL    HW247859   4.508   5.086   8.305
14338SOL     OW47860   4.683   4.219   8.331
14338SOL    HW147861   4.639   4.204   8.247
14338SOL    HW247862   4.717   4.133   8.355
14339SOL     OW47863   4.279   3.776   7.944
14339SOL    HW147864   4.201   3.761   7.998
14339SOL    HW247865   4.261   3.857   7.897
14340SOL     OW47866   5.151   4.937   7.471
14340SOL    HW147867   5.194   4.871   7.525
14340SOL    HW247868   5.074   4.963   7.523
14341SOL     OW47869   4.005   3.751   7.620
14341SOL    HW147870   4.073   3.773   7.555
14341SOL    HW247871   4.045   3.685   7.676
14342SOL     OW47872   4.671   3.991   7.920
14342SOL    HW147873   4.646   4.014   7.830
14342SOL    HW247874   4.767   3.994   7.919
14343SOL     OW47875   4.773   4.383   8.905
14343SOL    HW147876   4.686   4.344   8.898
14343SOL    HW247877   4.825   4.319   8.955
14344SOL     OW47878   4.919   5.306   8.249
14344SOL    HW147879   4.947   5.363   8.178
14344SOL    HW247880   4.930   5.359   8.328
14345SOL     OW47881   4.222   4.878   8.159
14345SOL    HW147882   4.153   4.868   8.225
14345SOL    HW247883   4.176   4.874   8.075
14346SOL     OW47884   4.988   5.513   8.059
14346SOL    HW147885   5.037   5.584   8.016
14346SOL    HW247886   4.916   5.557   8.104
14347SOL     OW47887   4.765   4.204   7.478
14347SOL    HW147888   4.727   4.291   7.462
14347SOL    HW247889   4.819   4.217   7.556
14348SOL     OW47890   3.847   4.315   8.792
14348SOL    HW147891   3.937   4.283   8.787
14348SOL    HW247892   3.842   4.361   8.876
14349SOL     OW47893   4.279   3.935   8.670
14349SOL    HW147894   4.315   3.902   8.752
14349SOL    HW247895   4.184   3.936   8.684
14350SOL     OW47896   4.539   4.174   8.095
14350SOL    HW147897   4.531   4.229   8.017
14350SOL    HW247898   4.578   4.092   8.062
14351SOL     OW47899   4.765   3.725   8.188
14351SOL    HW147900   4.691   3.713   8.129
14351SOL    HW247901   4.767   3.645   8.240
14352SOL     OW47902   5.135   4.876   8.303
14352SOL    HW147903   5.066   4.810   8.310
14352SOL    HW247904   5.149   4.886   8.209
14353SOL     OW47905   5.209   4.320   8.414
14353SOL    HW147906   5.139   4.261   8.439
14353SOL    HW247907   5.268   4.321   8.489
14354SOL     OW47908   5.582   4.505   7.854
14354SOL    HW147909   5.645   4.467   7.915
14354SOL    HW247910   5.565   4.435   7.791
14355SOL     OW47911   4.194   5.176   7.531
14355SOL    HW147912   4.129   5.148   7.596
14355SOL    HW247913   4.143   5.228   7.468
14356SOL     OW47914   5.445   4.974   8.122
14356SOL    HW147915   5.541   4.980   8.124
14356SOL    HW247916   5.415   5.063   8.141
14357SOL     OW47917   5.127   4.289   7.536
14357SOL    HW147918   5.056   4.265   7.595
14357SOL    HW247919   5.206   4.282   7.589
14358SOL     OW47920   4.247   3.996   7.776
14358SOL    HW147921   4.308   3.949   7.719
14358SOL    HW247922   4.214   4.068   7.723
14359SOL     OW47923   5.446   4.974   8.986
14359SOL    HW147924   5.507   4.921   9.037
14359SOL    HW247925   5.475   5.064   9.001
14360SOL     OW47926   4.766   5.117   8.750
14360SOL    HW147927   4.689   5.082   8.794
14360SOL    HW247928   4.816   5.160   8.819
14361SOL     OW47929   5.367   5.416   9.075
14361SOL    HW147930   5.342   5.430   8.983
14361SOL    HW247931   5.425   5.340   9.074
14362SOL     OW47932   4.873   4.920   8.582
14362SOL    HW147933   4.831   4.982   8.642
14362SOL    HW247934   4.862   4.960   8.496
14363SOL     OW47935   5.313   4.804   8.514
14363SOL    HW147936   5.310   4.866   8.587
14363SOL    HW247937   5.251   4.838   8.450
14364SOL     OW47938   4.645   3.883   8.817
14364SOL    HW147939   4.660   3.810   8.756
14364SOL    HW247940   4.705   3.865   8.890
14365SOL     OW47941   4.690   4.839   9.158
14365SOL    HW147942   4.604   4.853   9.196
14365SOL    HW247943   4.685   4.752   9.119
14366SOL     OW47944   4.445   4.801   7.825
14366SOL    HW147945   4.422   4.772   7.913
14366SOL    HW247946   4.515   4.742   7.798
14367SOL     OW47947   4.141   4.510   8.650
14367SOL    HW147948   4.190   4.539   8.727
14367SOL    HW247949   4.128   4.416   8.664
14368SOL     OW47950   5.008   4.164   8.718
14368SOL    HW147951   5.032   4.219   8.793
14368SOL    HW247952   4.912   4.159   8.723
14369SOL     OW47953   3.841   5.308   8.850
14369SOL    HW147954   3.833   5.388   8.903
14369SOL    HW247955   3.935   5.297   8.837
14370SOL     OW47956   4.090   4.864   7.918
14370SOL    HW147957   4.035   4.942   7.925
14370SOL    HW247958   4.054   4.816   7.843
14371SOL     OW47959   4.295   4.290   8.262
14371SOL    HW147960   4.343   4.234   8.200
14371SOL    HW247961   4.353   4.295   8.338
14372SOL     OW47962   4.971   5.078   7.874
14372SOL    HW147963   5.027   5.149   7.905
14372SOL    HW247964   4.882   5.105   7.898
14373SOL     OW47965   5.004   5.211   8.599
14373SOL    HW147966   5.071   5.212   8.668
14373SOL    HW247967   4.925   5.179   8.644
14374SOL     OW47968   5.307   4.349   7.924
14374SOL    HW147969   5.248   4.365   7.998
14374SOL    HW247970   5.372   4.420   7.929
14375SOL     OW47971   4.095   5.258   8.758
14375SOL    HW147972   4.088   5.210   8.676
14375SOL    HW247973   4.188   5.279   8.765
14376SOL     OW47974   4.141   4.501   9.109
14376SOL    HW147975   4.184   4.543   9.034
14376SOL    HW247976   4.198   4.428   9.131
14377SOL     OW47977   5.313   4.455   9.080
14377SOL    HW147978   5.255   4.528   9.103
14377SOL    HW247979   5.389   4.497   9.039
14378SOL     OW47980   4.257   3.765   9.195
14378SOL    HW147981   4.190   3.710   9.155
14378SOL    HW247982   4.210   3.842   9.226
14379SOL     OW47983   4.302   4.612   8.433
14379SOL    HW147984   4.351   4.690   8.457
14379SOL    HW247985   4.263   4.582   8.514
14380SOL     OW47986   4.997   4.619   8.514
14380SOL    HW147987   4.920   4.579   8.472
14380SOL    HW247988   5.065   4.552   8.505
14381SOL     OW47989   4.918   4.237   7.708
14381SOL    HW147990   4.932   4.162   7.767
14381SOL    HW247991   4.875   4.302   7.763
14382SOL     OW47992   4.002   3.948   8.688
14382SOL    HW147993   3.955   3.975   8.767
14382SOL    HW247994   3.986   3.853   8.682
14383SOL     OW47995   3.815   5.055   8.732
14383SOL    HW147996   3.821   4.995   8.807
14383SOL    HW247997   3.808   5.142   8.772
14384SOL     OW47998   4.470   4.326   8.466
14384SOL    HW147999   4.548   4.285   8.429
14384SOL    HW248000   4.504   4.393   8.526
14385SOL     OW48001   5.462   4.667   9.305
14385SOL    HW148002   5.505   4.595   9.350
14385SOL    HW248003   5.396   4.699   9.367
14386SOL     OW48004   4.023   3.705   8.052
14386SOL    HW148005   3.984   3.791   8.066
14386SOL    HW248006   4.041   3.671   8.140
14387SOL     OW48007   5.357   4.124   7.769
14387SOL    HW148008   5.384   4.055   7.830
14387SOL    HW248009   5.327   4.195   7.825
14388SOL     OW48010   4.759   4.472   8.419
14388SOL    HW148011   4.727   4.479   8.509
14388SOL    HW248012   4.748   4.380   8.397
14389SOL     OW48013   4.697   5.278   9.164
14389SOL    HW148014   4.669   5.317   9.081
14389SOL    HW248015   4.679   5.184   9.153
14390SOL     OW48016   5.557   5.224   9.023
14390SOL    HW148017   5.599   5.251   8.941
14390SOL    HW248018   5.628   5.217   9.086
14391SOL     OW48019   4.063   4.611   9.361
14391SOL    HW148020   4.146   4.651   9.387
14391SOL    HW248021   4.083   4.566   9.279
14392SOL     OW48022   5.299   3.898   7.556
14392SOL    HW148023   5.210   3.886   7.589
14392SOL    HW248024   5.335   3.968   7.611
14393SOL     OW48025   5.007   4.530   7.456
14393SOL    HW148026   5.046   4.444   7.472
14393SOL    HW248027   5.051   4.562   7.377
14394SOL     OW48028   4.827   5.055   8.334
14394SOL    HW148029   4.831   4.992   8.263
14394SOL    HW248030   4.866   5.135   8.299
14395SOL     OW48031   4.031   4.512   8.384
14395SOL    HW148032   4.055   4.528   8.476
14395SOL    HW248033   4.008   4.419   8.381
14396SOL     OW48034   4.024   4.240   8.369
14396SOL    HW148035   3.991   4.151   8.380
14396SOL    HW248036   4.112   4.229   8.331
14397SOL     OW48037   4.858   4.171   9.061
14397SOL    HW148038   4.792   4.128   9.115
14397SOL    HW248039   4.937   4.172   9.116
14398SOL     OW48040   4.828   3.882   9.024
14398SOL    HW148041   4.772   3.911   9.096
14398SOL    HW248042   4.880   3.959   9.002
14399SOL     OW48043   3.777   5.494   8.373
14399SOL    HW148044   3.754   5.412   8.329
14399SOL    HW248045   3.871   5.503   8.360
14400SOL     OW48046   4.212   5.291   8.322
14400SOL    HW148047   4.275   5.363   8.320
14400SOL    HW248048   4.255   5.220   8.275
14401SOL     OW48049   4.648   4.473   8.671
14401SOL    HW148050   4.725   4.452   8.723
14401SOL    HW248051   4.574   4.456   8.729
14402SOL     OW48052   3.796   4.339   8.523
14402SOL    HW148053   3.865   4.288   8.479
14402SOL    HW248054   3.815   4.329   8.616
14403SOL     OW48055   3.926   4.237   9.179
14403SOL    HW148056   3.984   4.186   9.122
14403SOL    HW248057   3.890   4.305   9.123
14404SOL     OW48058   5.122   4.654   9.084
14404SOL    HW148059   5.146   4.746   9.093
14404SOL    HW248060   5.093   4.646   8.993
14405SOL     OW48061   4.535   4.286   7.836
14405SOL    HW148062   4.545   4.211   7.776
14405SOL    HW248063   4.448   4.321   7.816
14406SOL     OW48064   5.390   4.322   8.630
14406SOL    HW148065   5.373   4.266   8.706
14406SOL    HW248066   5.482   4.307   8.610
14407SOL     OW48067   3.952   5.252   9.182
14407SOL    HW148068   3.915   5.292   9.261
14407SOL    HW248069   3.971   5.162   9.208
14408SOL     OW48070   4.444   4.162   8.690
14408SOL    HW148071   4.392   4.081   8.691
14408SOL    HW248072   4.422   4.202   8.606
14409SOL     OW48073   4.661   5.421   8.931
14409SOL    HW148074   4.617   5.503   8.907
14409SOL    HW248075   4.751   5.447   8.953
14410SOL     OW48076   4.167   4.215   7.627
14410SOL    HW148077   4.213   4.282   7.677
14410SOL    HW248078   4.079   4.251   7.613
14411SOL     OW48079   3.864   4.868   8.941
14411SOL    HW148080   3.867   4.827   9.028
14411SOL    HW248081   3.882   4.796   8.881
14412SOL     OW48082   5.057   4.601   7.723
14412SOL    HW148083   5.002   4.556   7.787
14412SOL    HW248084   5.026   4.570   7.638
14413SOL     OW48085   5.454   5.448   8.548
14413SOL    HW148086   5.535   5.474   8.504
14413SOL    HW248087   5.451   5.353   8.537
14414SOL     OW48088   4.972   5.459   8.484
14414SOL    HW148089   5.059   5.498   8.476
14414SOL    HW248090   4.988   5.375   8.529
14415SOL     OW48091   3.852   5.002   8.470
14415SOL    HW148092   3.839   5.015   8.564
14415SOL    HW248093   3.764   5.007   8.432
14416SOL     OW48094   4.417   5.406   9.209
14416SOL    HW148095   4.353   5.476   9.197
14416SOL    HW248096   4.501   5.445   9.182
14417SOL     OW48097   5.458   3.916   7.930
14417SOL    HW148098   5.520   3.898   7.859
14417SOL    HW248099   5.452   3.833   7.978
14418SOL     OW48100   5.124   5.292   7.958
14418SOL    HW148101   5.183   5.326   7.891
14418SOL    HW248102   5.076   5.368   7.989
14419SOL     OW48103   3.875   5.558   9.274
14419SOL    HW148104   3.845   5.482   9.323
14419SOL    HW248105   3.917   5.614   9.340
14420SOL     OW48106   5.005   4.655   8.122
14420SOL    HW148107   5.075   4.592   8.138
14420SOL    HW248108   5.047   4.727   8.074
14421SOL     OW48109   4.524   5.015   8.854
14421SOL    HW148110   4.498   5.063   8.933
14421SOL    HW248111   4.448   5.020   8.796
14422SOL     OW48112   4.393   5.366   7.596
14422SOL    HW148113   4.416   5.377   7.504
14422SOL    HW248114   4.335   5.289   7.597
14423SOL     OW48115   5.333   5.460   8.801
14423SOL    HW148116   5.382   5.463   8.719
14423SOL    HW248117   5.337   5.549   8.835
14424SOL     OW48118   5.566   3.875   8.388
14424SOL    HW148119   5.596   3.784   8.381
14424SOL    HW248120   5.475   3.871   8.358
14425SOL     OW48121   3.958   3.975   8.133
14425SOL    HW148122   3.876   4.022   8.118
14425SOL    HW248123   3.962   3.963   8.228
14426SOL     OW48124   4.934   5.280   7.499
14426SOL    HW148125   4.928   5.193   7.537
14426SOL    HW248126   4.859   5.287   7.440
14427SOL     OW48127   4.527   4.735   8.838
14427SOL    HW148128   4.562   4.733   8.749
14427SOL    HW248129   4.529   4.827   8.863
14428SOL     OW48130   4.645   4.635   7.739
14428SOL    HW148131   4.706   4.667   7.673
14428SOL    HW248132   4.694   4.567   7.785
14429SOL     OW48133   5.209   5.364   7.512
14429SOL    HW148134   5.117   5.341   7.499
14429SOL    HW248135   5.243   5.375   7.423
14430SOL     OW48136   4.099   5.031   8.939
14430SOL    HW148137   4.089   5.106   8.881
14430SOL    HW248138   4.017   4.982   8.930
14431SOL     OW48139   5.289   4.968   8.735
14431SOL    HW148140   5.353   4.955   8.805
14431SOL    HW248141   5.252   5.054   8.753
14432SOL     OW48142   4.796   4.836   8.170
14432SOL    HW148143   4.724   4.786   8.209
14432SOL    HW248144   4.860   4.769   8.145
14433SOL     OW48145   4.772   3.953   8.365
14433SOL    HW148146   4.773   3.887   8.296
14433SOL    HW248147   4.753   3.904   8.445
14434SOL     OW48148   4.322   5.197   7.915
14434SOL    HW148149   4.374   5.161   7.844
14434SOL    HW248150   4.268   5.265   7.874
14435SOL     OW48151   5.441   4.096   8.826
14435SOL    HW148152   5.527   4.086   8.868
14435SOL    HW248153   5.445   4.039   8.750
14436SOL     OW48154   3.970   5.105   7.680
14436SOL    HW148155   3.889   5.150   7.656
14436SOL    HW248156   3.965   5.095   7.775
14437SOL     OW48157   3.856   4.753   9.206
14437SOL    HW148158   3.770   4.740   9.245
14437SOL    HW248159   3.916   4.703   9.261
14438SOL     OW48160   4.397   3.940   8.933
14438SOL    HW148161   4.484   3.925   8.897
14438SOL    HW248162   4.413   3.972   9.022
14439SOL     OW48163   5.095   4.584   8.810
14439SOL    HW148164   5.075   4.496   8.845
14439SOL    HW248165   5.187   4.580   8.785
14440SOL     OW48166   3.817   3.869   7.783
14440SOL    HW148167   3.863   3.945   7.818
14440SOL    HW248168   3.876   3.833   7.718
14441SOL     OW48169   4.924   5.018   7.609
14441SOL    HW148170   4.864   4.943   7.616
14441SOL    HW248171   4.946   5.040   7.699
14442SOL     OW48172   4.301   4.567   8.869
14442SOL    HW148173   4.360   4.642   8.872
14442SOL    HW248174   4.357   4.491   8.880
14443SOL     OW48175   5.222   5.579   8.472
14443SOL    HW148176   5.256   5.649   8.417
14443SOL    HW248177   5.300   5.530   8.500
14444SOL     OW48178   4.401   4.330   9.131
14444SOL    HW148179   4.458   4.371   9.197
14444SOL    HW248180   4.404   4.237   9.152
14445SOL     OW48181   5.194   4.917   9.074
14445SOL    HW148182   5.190   4.935   9.168
14445SOL    HW248183   5.282   4.945   9.049
14446SOL     OW48184   4.075   5.453   9.034
14446SOL    HW148185   3.993   5.499   9.018
14446SOL    HW248186   4.049   5.375   9.084
14447SOL     OW48187   5.347   4.592   8.703
14447SOL    HW148188   5.373   4.506   8.669
14447SOL    HW248189   5.358   4.651   8.629
14448SOL     OW48190   4.957   4.038   7.900
14448SOL    HW148191   5.022   3.967   7.893
14448SOL    HW248192   4.981   4.084   7.980
14449SOL     OW48193   5.449   4.100   9.113
14449SOL    HW148194   5.413   4.118   9.026
14449SOL    HW248195   5.396   4.027   9.146
14450SOL     OW48196   5.503   4.592   8.940
14450SOL    HW148197   5.522   4.678   8.979
14450SOL    HW248198   5.459   4.611   8.858
14451SOL     OW48199   4.539   5.069   7.472
14451SOL    HW148200   4.550   5.079   7.567
14451SOL    HW248201   4.592   5.139   7.434
14452SOL     OW48202   4.388   5.496   8.290
14452SOL    HW148203   4.351   5.579   8.321
14452SOL    HW248204   4.477   5.495   8.326
14453SOL     OW48205   4.603   4.685   8.307
14453SOL    HW148206   4.654   4.613   8.345
14453SOL    HW248207   4.562   4.728   8.383
14454SOL     OW48208   4.804   4.706   7.527
14454SOL    HW148209   4.794   4.763   7.450
14454SOL    HW248210   4.874   4.646   7.503
14455SOL     OW48211   5.567   5.255   8.261
14455SOL    HW148212   5.482   5.260   8.218
14455SOL    HW248213   5.548   5.218   8.348
14456SOL     OW48214   3.961   4.996   9.291
14456SOL    HW148215   3.925   4.916   9.253
14456SOL    HW248216   3.900   5.019   9.361
14457SOL     OW48217   3.825   4.922   8.146
14457SOL    HW148218   3.750   4.887   8.193
14457SOL    HW248219   3.901   4.891   8.196
14458SOL     OW48220   4.428   5.155   9.074
14458SOL    HW148221   4.354   5.110   9.114
14458SOL    HW248222   4.426   5.243   9.111
14459SOL     OW48223   5.471   3.897   8.646
14459SOL    HW148224   5.508   3.819   8.688
14459SOL    HW248225   5.504   3.894   8.557
14460SOL     OW48226   4.149   4.140   8.004
14460SOL    HW148227   4.188   4.088   7.933
14460SOL    HW248228   4.089   4.079   8.048
14461SOL     OW48229   5.446   5.178   8.497
14461SOL    HW148230   5.355   5.150   8.485
14461SOL    HW248231   5.477   5.126   8.572
14462SOL     OW48232   4.102   4.239   8.708
14462SOL    HW148233   4.138   4.209   8.791
14462SOL    HW248234   4.079   4.159   8.661
14463SOL     OW48235   4.572   5.302   8.117
14463SOL    HW148236   4.532   5.388   8.106
14463SOL    HW248237   4.500   5.244   8.140
14464SOL     OW48238   5.176   3.988   8.590
14464SOL    HW148239   5.233   3.944   8.652
14464SOL    HW248240   5.120   4.043   8.645
14465SOL     OW48241   4.739   3.755   8.560
14465SOL    HW148242   4.683   3.678   8.563
14465SOL    HW248243   4.826   3.723   8.581
14466SOL     OW48244   4.517   5.064   7.750
14466SOL    HW148245   4.496   4.977   7.784
14466SOL    HW248246   4.587   5.096   7.807
14467SOL     OW48247   4.371   5.299   8.722
14467SOL    HW148248   4.362   5.373   8.783
14467SOL    HW248249   4.456   5.312   8.681
14468SOL     OW48250   5.081   3.736   7.598
14468SOL    HW148251   5.110   3.702   7.683
14468SOL    HW248252   4.986   3.724   7.599
14469SOL     OW48253   5.023   4.183   8.127
14469SOL    HW148254   4.975   4.266   8.126
14469SOL    HW248255   5.014   4.152   8.217
14470SOL     OW48256   5.288   3.894   8.351
14470SOL    HW148257   5.251   3.922   8.434
14470SOL    HW248258   5.286   3.971   8.295
14471SOL     OW48259   3.715   4.802   7.711
14471SOL    HW148260   3.807   4.817   7.692
14471SOL    HW248261   3.711   4.712   7.743
14472SOL     OW48262   4.633   5.424   7.764
14472SOL    HW148263   4.550   5.403   7.721
14472SOL    HW248264   4.608   5.481   7.837
14473SOL     OW48265   3.923   4.333   9.439
14473SOL    HW148266   3.838   4.303   9.471
14473SOL    HW248267   3.925   4.304   9.347
14474SOL     OW48268   5.576   4.220   9.495
14474SOL    HW148269   5.524   4.264   9.428
14474SOL    HW248270   5.513   4.198   9.564
14475SOL     OW48271   3.952   5.478   9.773
14475SOL    HW148272   3.959   5.556   9.828
14475SOL    HW248273   4.033   5.477   9.722
14476SOL     OW48274   3.928   5.229   9.882
14476SOL    HW148275   3.929   5.318   9.846
14476SOL    HW248276   3.863   5.233   9.952
14477SOL     OW48277   4.309   4.702   9.442
14477SOL    HW148278   4.363   4.749   9.378
14477SOL    HW248279   4.340   4.734   9.527
14478SOL     OW48280   3.790   4.389   9.904
14478SOL    HW148281   3.706   4.349   9.883
14478SOL    HW248282   3.768   4.465   9.959
14479SOL     OW48283   5.517   5.524   9.708
14479SOL    HW148284   5.515   5.443   9.759
14479SOL    HW248285   5.579   5.506   9.637
14480SOL     OW48286   3.809   5.319   9.410
14480SOL    HW148287   3.785   5.229   9.433
14480SOL    HW248288   3.772   5.372   9.480
14481SOL     OW48289   5.343   4.626   9.976
14481SOL    HW148290   5.436   4.619   9.996
14481SOL    HW248291   5.339   4.686   9.902
14482SOL     OW48292   5.389   4.780   9.752
14482SOL    HW148293   5.481   4.767   9.729
14482SOL    HW248294   5.384   4.872   9.779
14483SOL     OW48295   4.516   3.727   9.846
14483SOL    HW148296   4.552   3.789   9.783
14483SOL    HW248297   4.424   3.753   9.854
14484SOL     OW48298   5.278   4.727   9.505
14484SOL    HW148299   5.216   4.658   9.529
14484SOL    HW248300   5.317   4.753   9.588
14485SOL     OW48301   4.318   4.426   9.565
14485SOL    HW148302   4.346   4.499   9.509
14485SOL    HW248303   4.313   4.463   9.653
14486SOL     OW48304   5.278   5.414   9.619
14486SOL    HW148305   5.341   5.483   9.639
14486SOL    HW248306   5.325   5.333   9.636
14487SOL     OW48307   4.728   4.415   9.716
14487SOL    HW148308   4.754   4.398   9.806
14487SOL    HW248309   4.666   4.346   9.695
14488SOL     OW48310   3.728   4.594   0.081
14488SOL    HW148311   3.723   4.550   0.166
14488SOL    HW248312   3.761   4.682   0.102
14489SOL     OW48313   5.037   4.776   9.733
14489SOL    HW148314   5.044   4.789   9.827
14489SOL    HW248315   5.018   4.863   9.698
14490SOL     OW48316   4.735   5.194   9.744
14490SOL    HW148317   4.708   5.272   9.696
14490SOL    HW248318   4.760   5.225   9.830
14491SOL     OW48319   4.099   5.599   0.182
14491SOL    HW148320   4.108   5.512   0.220
14491SOL    HW248321   4.188   5.633   0.175
14492SOL     OW48322   4.831   5.548   9.436
14492SOL    HW148323   4.769   5.514   9.501
14492SOL    HW248324   4.868   5.470   9.395
14493SOL     OW48325   5.406   5.108   9.353
14493SOL    HW148326   5.349   5.180   9.328
14493SOL    HW248327   5.348   5.032   9.359
14494SOL     OW48328   4.197   5.495   9.639
14494SOL    HW148329   4.246   5.543   9.705
14494SOL    HW248330   4.263   5.447   9.589
14495SOL     OW48331   4.022   4.422   9.757
14495SOL    HW148332   4.068   4.339   9.771
14495SOL    HW248333   3.942   4.414   9.808
14496SOL     OW48334   4.388   3.899   9.417
14496SOL    HW148335   4.479   3.927   9.416
14496SOL    HW248336   4.385   3.823   9.359
14497SOL     OW48337   4.267   3.845   9.860
14497SOL    HW148338   4.176   3.821   9.880
14497SOL    HW248339   4.261   3.896   9.779
14498SOL     OW48340   5.184   4.930   9.348
14498SOL    HW148341   5.211   4.858   9.405
14498SOL    HW248342   5.109   4.969   9.394
14499SOL     OW48343   4.045   3.771   9.491
14499SOL    HW148344   4.119   3.826   9.465
14499SOL    HW248345   4.085   3.704   9.546
14500SOL     OW48346   4.624   3.901   9.667
14500SOL    HW148347   4.607   3.940   9.581
14500SOL    HW248348   4.706   3.852   9.655
14501SOL     OW48349   4.246   4.943   0.035
14501SOL    HW148350   4.178   4.994   0.080
14501SOL    HW248351   4.206   4.918   9.952
14502SOL     OW48352   4.991   5.510   9.920
14502SOL    HW148353   5.025   5.587   9.873
14502SOL    HW248354   5.002   5.532   0.012
14503SOL     OW48355   4.823   4.334   9.390
14503SOL    HW148356   4.731   4.348   9.367
14503SOL    HW248357   4.869   4.409   9.352
14504SOL     OW48358   4.621   4.110   9.876
14504SOL    HW148359   4.575   4.161   9.809
14504SOL    HW248360   4.632   4.023   9.837
14505SOL     OW48361   5.558   4.523   9.653
14505SOL    HW148362   5.588   4.614   9.659
14505SOL    HW248363   5.638   4.471   9.659
14506SOL     OW48364   4.203   5.147   9.491
14506SOL    HW148365   4.124   5.130   9.541
14506SOL    HW248366   4.193   5.097   9.410
14507SOL     OW48367   5.160   4.347   9.403
14507SOL    HW148368   5.152   4.404   9.480
14507SOL    HW248369   5.254   4.334   9.391
14508SOL     OW48370   4.253   4.005   9.631
14508SOL    HW148371   4.311   3.955   9.574
14508SOL    HW248372   4.216   4.073   9.575
14509SOL     OW48373   4.402   4.771   9.696
14509SOL    HW148374   4.360   4.706   9.751
14509SOL    HW248375   4.484   4.731   9.669
14510SOL     OW48376   4.120   4.889   9.796
14510SOL    HW148377   4.076   4.953   9.740
14510SOL    HW248378   4.196   4.861   9.745
14511SOL     OW48379   4.970   5.062   9.663
14511SOL    HW148380   5.036   5.118   9.704
14511SOL    HW248381   4.887   5.094   9.699
14512SOL     OW48382   5.329   4.424   9.771
14512SOL    HW148383   5.328   4.470   9.855
14512SOL    HW248384   5.405   4.459   9.725
14513SOL     OW48385   4.007   3.801   9.936
14513SOL    HW148386   3.938   3.866   9.952
14513SOL    HW248387   4.010   3.750   0.016
14514SOL     OW48388   5.354   4.163   9.655
14514SOL    HW148389   5.383   4.098   9.718
14514SOL    HW248390   5.335   4.241   9.708
14515SOL     OW48391   5.218   4.016   9.456
14515SOL    HW148392   5.172   3.954   9.514
14515SOL    HW248393   5.279   4.062   9.514
14516SOL     OW48394   4.984   4.532   9.286
14516SOL    HW148395   5.050   4.475   9.325
14516SOL    HW248396   5.030   4.577   9.215
14517SOL     OW48397   3.763   5.048   9.475
14517SOL    HW148398   3.676   5.057   9.436
14517SOL    HW248399   3.760   4.963   9.520
14518SOL     OW48400   4.530   4.234   9.638
14518SOL    HW148401   4.538   4.167   9.569
14518SOL    HW248402   4.456   4.288   9.610
14519SOL     OW48403   4.171   4.208   9.463
14519SOL    HW148404   4.229   4.278   9.492
14519SOL    HW248405   4.083   4.247   9.465
14520SOL     OW48406   5.121   4.524   9.614
14520SOL    HW148407   5.180   4.491   9.682
14520SOL    HW248408   5.071   4.594   9.657
14521SOL     OW48409   5.478   3.963   9.806
14521SOL    HW148410   5.546   3.926   9.749
14521SOL    HW248411   5.434   3.887   9.844
14522SOL     OW48412   5.092   5.291   9.788
14522SOL    HW148413   5.159   5.324   9.729
14522SOL    HW248414   5.055   5.369   9.829
14523SOL     OW48415   4.387   5.351   9.479
14523SOL    HW148416   4.394   5.365   9.385
14523SOL    HW248417   4.328   5.275   9.488
14524SOL     OW48418   4.926   5.325   9.303
14524SOL    HW148419   4.936   5.242   9.349
14524SOL    HW248420   4.845   5.315   9.252
14525SOL     OW48421   4.615   4.635   9.599
14525SOL    HW148422   4.677   4.662   9.531
14525SOL    HW248423   4.659   4.564   9.645
14526SOL     OW48424   5.209   5.279   9.262
14526SOL    HW148425   5.123   5.316   9.281
14526SOL    HW248426   5.252   5.345   9.206
14527SOL     OW48427   4.307   5.171   9.781
14527SOL    HW148428   4.378   5.132   9.730
14527SOL    HW248429   4.238   5.188   9.717
14528SOL     OW48430   3.988   5.090   9.652
14528SOL    HW148431   3.905   5.078   9.605
14528SOL    HW248432   3.963   5.136   9.732
14529SOL     OW48433   3.811   4.049   9.350
14529SOL    HW148434   3.716   4.064   9.350
14529SOL    HW248435   3.845   4.112   9.286
14530SOL     OW48436   3.791   3.873   9.571
14530SOL    HW148437   3.796   3.936   9.498
14530SOL    HW248438   3.878   3.835   9.575
14531SOL     OW48439   4.893   5.063   9.398
14531SOL    HW148440   4.798   5.049   9.404
14531SOL    HW248441   4.923   5.056   9.489
14532SOL     OW48442   5.055   4.075   9.828
14532SOL    HW148443   5.063   4.003   9.765
14532SOL    HW248444   5.063   4.032   9.914
14533SOL     OW48445   4.269   4.556   9.814
14533SOL    HW148446   4.302   4.538   9.902
14533SOL    HW248447   4.181   4.519   9.813
14534SOL     OW48448   4.600   5.087   9.396
14534SOL    HW148449   4.568   5.076   9.485
14534SOL    HW248450   4.595   5.181   9.380
14535SOL     OW48451   4.770   4.681   9.379
14535SOL    HW148452   4.766   4.752   9.315
14535SOL    HW248453   4.852   4.636   9.359
14536SOL     OW48454   3.838   4.860   9.876
14536SOL    HW148455   3.806   4.896   9.959
14536SOL    HW248456   3.933   4.870   9.881
14537SOL     OW48457   4.144   4.185   9.821
14537SOL    HW148458   4.192   4.123   9.766
14537SOL    HW248459   4.114   4.133   9.896
14538SOL     OW48460   4.515   5.040   9.654
14538SOL    HW148461   4.498   4.951   9.684
14538SOL    HW248462   4.593   5.067   9.703
14539SOL     OW48463   3.788   4.813   9.611
14539SOL    HW148464   3.798   4.829   9.705
14539SOL    HW248465   3.744   4.729   9.605
14540SOL     OW48466   4.630   5.418   9.601
14540SOL    HW148467   4.548   5.387   9.563
14540SOL    HW248468   4.604   5.486   9.663
14541SOL     OW48469   3.935   6.180   0.148
14541SOL    HW148470   3.844   6.167   0.174
14541SOL    HW248471   3.929   6.223   0.062
14542SOL     OW48472   3.947   5.898   1.001
14542SOL    HW148473   3.984   5.849   1.075
14542SOL    HW248474   3.862   5.857   0.985
14543SOL     OW48475   3.767   5.944   0.667
14543SOL    HW148476   3.690   5.993   0.694
14543SOL    HW248477   3.734   5.872   0.613
14544SOL     OW48478   4.209   6.890   1.152
14544SOL    HW148479   4.136   6.927   1.102
14544SOL    HW248480   4.246   6.964   1.198
14545SOL     OW48481   5.241   7.067   0.687
14545SOL    HW148482   5.319   7.118   0.665
14545SOL    HW248483   5.174   7.096   0.626
14546SOL     OW48484   4.860   6.298   0.677
14546SOL    HW148485   4.916   6.374   0.661
14546SOL    HW248486   4.810   6.320   0.756
14547SOL     OW48487   5.603   6.113   0.278
14547SOL    HW148488   5.536   6.079   0.219
14547SOL    HW248489   5.609   6.047   0.348
14548SOL     OW48490   4.425   6.730   1.115
14548SOL    HW148491   4.343   6.778   1.128
14548SOL    HW248492   4.480   6.789   1.065
14549SOL     OW48493   4.617   6.334   1.786
14549SOL    HW148494   4.638   6.404   1.847
14549SOL    HW248495   4.625   6.374   1.699
14550SOL     OW48496   4.388   6.520   0.676
14550SOL    HW148497   4.459   6.520   0.740
14550SOL    HW248498   4.339   6.600   0.694
14551SOL     OW48499   4.462   6.827   1.823
14551SOL    HW148500   4.531   6.880   1.864
14551SOL    HW248501   4.434   6.878   1.748
14552SOL     OW48502   4.018   7.029   0.999
14552SOL    HW148503   3.939   7.066   0.959
14552SOL    HW248504   4.086   7.095   0.982
14553SOL     OW48505   5.193   7.073   1.369
14553SOL    HW148506   5.253   7.147   1.374
14553SOL    HW248507   5.120   7.097   1.426
14554SOL     OW48508   4.152   5.893   1.649
14554SOL    HW148509   4.227   5.928   1.601
14554SOL    HW248510   4.084   5.881   1.583
14555SOL     OW48511   5.290   6.002   0.697
14555SOL    HW148512   5.195   6.009   0.694
14555SOL    HW248513   5.322   6.071   0.639
14556SOL     OW48514   3.968   7.292   0.427
14556SOL    HW148515   3.973   7.358   0.496
14556SOL    HW248516   4.059   7.272   0.406
14557SOL     OW48517   4.914   6.919   1.680
14557SOL    HW148518   4.929   6.880   1.766
14557SOL    HW248519   4.928   6.848   1.618
14558SOL     OW48520   3.978   6.786   0.872
14558SOL    HW148521   3.972   6.789   0.776
14558SOL    HW248522   3.989   6.878   0.897
14559SOL     OW48523   4.313   7.329   1.442
14559SOL    HW148524   4.224   7.337   1.476
14559SOL    HW248525   4.346   7.419   1.439
14560SOL     OW48526   5.299   5.717   1.449
14560SOL    HW148527   5.363   5.738   1.382
14560SOL    HW248528   5.264   5.802   1.477
14561SOL     OW48529   3.790   6.238   0.595
14561SOL    HW148530   3.734   6.264   0.521
14561SOL    HW248531   3.791   6.315   0.652
14562SOL     OW48532   3.699   7.183   0.086
14562SOL    HW148533   3.744   7.105   0.117
14562SOL    HW248534   3.712   7.248   0.154
14563SOL     OW48535   5.461   6.517   0.615
14563SOL    HW148536   5.493   6.463   0.543
14563SOL    HW248537   5.397   6.576   0.575
14564SOL     OW48538   5.338   6.701   0.416
14564SOL    HW148539   5.430   6.696   0.387
14564SOL    HW248540   5.342   6.754   0.496
14565SOL     OW48541   3.885   6.330   1.602
14565SOL    HW148542   3.948   6.368   1.542
14565SOL    HW248543   3.849   6.405   1.650
14566SOL     OW48544   4.354   6.978   0.798
14566SOL    HW148545   4.316   6.891   0.790
14566SOL    HW248546   4.354   7.013   0.709
14567SOL     OW48547   4.979   6.750   1.462
14567SOL    HW148548   4.983   6.691   1.387
14567SOL    HW248549   5.068   6.753   1.495
14568SOL     OW48550   5.199   6.568   0.214
14568SOL    HW148551   5.117   6.559   0.262
14568SOL    HW248552   5.256   6.616   0.274
14569SOL     OW48553   4.935   7.410   1.619
14569SOL    HW148554   4.929   7.487   1.562
14569SOL    HW248555   4.944   7.336   1.559
14570SOL     OW48556   4.034   5.853   1.898
14570SOL    HW148557   4.075   5.885   1.817
14570SOL    HW248558   3.943   5.884   1.892
14571SOL     OW48559   5.227   6.977   0.948
14571SOL    HW148560   5.149   7.004   0.995
14571SOL    HW248561   5.214   7.010   0.859
14572SOL     OW48562   5.463   7.197   0.592
14572SOL    HW148563   5.521   7.274   0.593
14572SOL    HW248564   5.432   7.193   0.501
14573SOL     OW48565   4.407   6.284   0.210
14573SOL    HW148566   4.491   6.302   0.168
14573SOL    HW248567   4.395   6.355   0.273
14574SOL     OW48568   4.981   5.988   0.960
14574SOL    HW148569   4.896   5.944   0.962
14574SOL    HW248570   5.039   5.929   1.008
14575SOL     OW48571   5.325   7.234   0.323
14575SOL    HW148572   5.346   7.324   0.297
14575SOL    HW248573   5.309   7.188   0.241
14576SOL     OW48574   4.471   6.230   1.429
14576SOL    HW148575   4.462   6.196   1.518
14576SOL    HW248576   4.424   6.168   1.374
14577SOL     OW48577   5.099   6.058   1.668
14577SOL    HW148578   5.107   6.103   1.751
14577SOL    HW248579   5.156   5.981   1.676
14578SOL     OW48580   4.644   6.489   1.551
14578SOL    HW148581   4.702   6.443   1.489
14578SOL    HW248582   4.585   6.539   1.495
14579SOL     OW48583   4.737   5.961   1.217
14579SOL    HW148584   4.668   6.026   1.229
14579SOL    HW248585   4.720   5.922   1.131
14580SOL     OW48586   4.715   6.306   0.436
14580SOL    HW148587   4.772   6.297   0.512
14580SOL    HW248588   4.647   6.240   0.449
14581SOL     OW48589   3.832   6.445   0.782
14581SOL    HW148590   3.865   6.490   0.704
14581SOL    HW248591   3.747   6.486   0.799
14582SOL     OW48592   3.789   7.439   1.570
14582SOL    HW148593   3.814   7.521   1.612
14582SOL    HW248594   3.708   7.459   1.524
14583SOL     OW48595   4.629   5.932   0.240
14583SOL    HW148596   4.685   5.989   0.186
14583SOL    HW248597   4.635   5.847   0.197
14584SOL     OW48598   5.393   6.168   1.866
14584SOL    HW148599   5.386   6.246   1.811
14584SOL    HW248600   5.432   6.102   1.808
14585SOL     OW48601   5.061   6.694   0.450
14585SOL    HW148602   5.155   6.711   0.439
14585SOL    HW248603   5.019   6.778   0.433
14586SOL     OW48604   4.248   5.776   0.848
14586SOL    HW148605   4.228   5.868   0.865
14586SOL    HW248606   4.314   5.778   0.779
14587SOL     OW48607   4.709   7.059   0.445
14587SOL    HW148608   4.694   7.131   0.383
14587SOL    HW248609   4.674   7.092   0.528
14588SOL     OW48610   4.089   7.428   0.884
14588SOL    HW148611   4.144   7.352   0.903
14588SOL    HW248612   4.145   7.503   0.900
14589SOL     OW48613   5.558   6.543   0.867
14589SOL    HW148614   5.520   6.536   0.779
14589SOL    HW248615   5.489   6.581   0.920
14590SOL     OW48616   4.967   7.141   1.514
14590SOL    HW148617   4.969   7.077   1.585
14590SOL    HW248618   4.906   7.104   1.450
14591SOL     OW48619   5.183   6.343   0.734
14591SOL    HW148620   5.196   6.287   0.810
14591SOL    HW248621   5.237   6.303   0.666
14592SOL     OW48622   4.087   6.783   1.769
14592SOL    HW148623   4.107   6.818   1.682
14592SOL    HW248624   3.997   6.809   1.786
14593SOL     OW48625   4.867   7.380   0.164
14593SOL    HW148626   4.785   7.378   0.213
14593SOL    HW248627   4.881   7.290   0.136
14594SOL     OW48628   3.942   5.850   1.480
14594SOL    HW148629   3.894   5.932   1.468
14594SOL    HW248630   3.875   5.787   1.506
14595SOL     OW48631   5.348   6.933   0.059
14595SOL    HW148632   5.324   7.025   0.045
14595SOL    HW248633   5.278   6.883   0.017
14596SOL     OW48634   4.239   7.251   0.376
14596SOL    HW148635   4.262   7.334   0.417
14596SOL    HW248636   4.296   7.244   0.300
14597SOL     OW48637   5.103   5.693   0.417
14597SOL    HW148638   5.060   5.778   0.422
14597SOL    HW248639   5.196   5.713   0.409
14598SOL     OW48640   3.956   7.319   1.244
14598SOL    HW148641   3.972   7.410   1.269
14598SOL    HW248642   3.926   7.323   1.153
14599SOL     OW48643   4.670   7.298   0.875
14599SOL    HW148644   4.759   7.263   0.873
14599SOL    HW248645   4.624   7.251   0.806
14600SOL     OW48646   4.066   6.216   0.468
14600SOL    HW148647   4.114   6.182   0.393
14600SOL    HW248648   4.005   6.280   0.431
14601SOL     OW48649   5.247   5.833   1.726
14601SOL    HW148650   5.233   5.831   1.820
14601SOL    HW248651   5.244   5.740   1.700
14602SOL     OW48652   4.363   5.678   0.112
14602SOL    HW148653   4.458   5.685   0.121
14602SOL    HW248654   4.346   5.702   0.020
14603SOL     OW48655   4.502   5.892   1.748
14603SOL    HW148656   4.592   5.857   1.749
14603SOL    HW248657   4.455   5.837   1.811
14604SOL     OW48658   4.586   7.075   1.212
14604SOL    HW148659   4.575   7.032   1.127
14604SOL    HW248660   4.663   7.129   1.202
14605SOL     OW48661   5.034   6.173   1.423
14605SOL    HW148662   5.071   6.149   1.508
14605SOL    HW248663   5.069   6.260   1.405
14606SOL     OW48664   4.558   6.935   0.977
14606SOL    HW148665   4.641   6.945   0.932
14606SOL    HW248666   4.492   6.959   0.912
14607SOL     OW48667   4.640   6.102   0.914
14607SOL    HW148668   4.612   6.092   0.823
14607SOL    HW248669   4.675   6.016   0.938
14608SOL     OW48670   4.225   5.611   0.470
14608SOL    HW148671   4.155   5.633   0.532
14608SOL    HW248672   4.242   5.693   0.424
14609SOL     OW48673   5.132   6.736   9.995
14609SOL    HW148674   5.168   6.679   0.063
14609SOL    HW248675   5.056   6.776   0.035
14610SOL     OW48676   4.724   5.861   0.497
14610SOL    HW148677   4.685   5.879   0.411
14610SOL    HW248678   4.817   5.883   0.487
14611SOL     OW48679   4.763   6.167   1.497
14611SOL    HW148680   4.702   6.221   1.447
14611SOL    HW248681   4.848   6.182   1.456
14612SOL     OW48682   4.934   7.206   0.811
14612SOL    HW148683   4.944   7.250   0.726
14612SOL    HW248684   5.000   7.247   0.867
14613SOL     OW48685   4.228   6.737   0.756
14613SOL    HW148686   4.163   6.735   0.826
14613SOL    HW248687   4.177   6.755   0.677
14614SOL     OW48688   4.977   7.404   0.611
14614SOL    HW148689   5.005   7.469   0.547
14614SOL    HW248690   4.922   7.453   0.673
14615SOL     OW48691   4.777   6.118   0.083
14615SOL    HW148692   4.746   6.200   0.122
14615SOL    HW248693   4.860   6.100   0.128
14616SOL     OW48694   3.854   6.113   1.423
14616SOL    HW148695   3.937   6.134   1.380
14616SOL    HW248696   3.841   6.183   1.486
14617SOL     OW48697   4.300   5.801   1.206
14617SOL    HW148698   4.334   5.724   1.161
14617SOL    HW248699   4.206   5.787   1.210
14618SOL     OW48700   4.564   6.012   0.664
14618SOL    HW148701   4.527   6.064   0.593
14618SOL    HW248702   4.623   5.951   0.620
14619SOL     OW48703   5.185   6.657   0.854
14619SOL    HW148704   5.111   6.636   0.797
14619SOL    HW248705   5.241   6.713   0.800
14620SOL     OW48706   5.172   6.205   0.987
14620SOL    HW148707   5.116   6.128   0.984
14620SOL    HW248708   5.239   6.185   1.052
14621SOL     OW48709   5.568   6.349   0.420
14621SOL    HW148710   5.626   6.318   0.489
14621SOL    HW248711   5.578   6.284   0.350
14622SOL     OW48712   5.334   6.807   0.670
14622SOL    HW148713   5.429   6.814   0.680
14622SOL    HW248714   5.303   6.897   0.679
14623SOL     OW48715   4.252   5.859   0.341
14623SOL    HW148716   4.309   5.821   0.273
14623SOL    HW248717   4.231   5.947   0.307
14624SOL     OW48718   5.477   6.802   1.574
14624SOL    HW148719   5.566   6.774   1.554
14624SOL    HW248720   5.485   6.896   1.590
14625SOL     OW48721   4.815   6.954   1.376
14625SOL    HW148722   4.726   6.934   1.405
14625SOL    HW248723   4.868   6.881   1.408
14626SOL     OW48724   5.339   7.196   1.669
14626SOL    HW148725   5.324   7.241   1.586
14626SOL    HW248726   5.420   7.147   1.656
14627SOL     OW48727   4.855   6.823   1.127
14627SOL    HW148728   4.807   6.879   1.188
14627SOL    HW248729   4.839   6.860   1.041
14628SOL     OW48730   5.368   6.668   1.063
14628SOL    HW148731   5.340   6.731   1.130
14628SOL    HW248732   5.300   6.672   0.996
14629SOL     OW48733   4.636   5.652   1.366
14629SOL    HW148734   4.648   5.641   1.272
14629SOL    HW248735   4.716   5.693   1.396
14630SOL     OW48736   4.696   6.675   1.750
14630SOL    HW148737   4.615   6.727   1.749
14630SOL    HW248738   4.690   6.621   1.671
14631SOL     OW48739   4.394   6.481   0.392
14631SOL    HW148740   4.407   6.500   0.485
14631SOL    HW248741   4.394   6.567   0.350
14632SOL     OW48742   4.046   6.437   1.400
14632SOL    HW148743   4.138   6.460   1.410
14632SOL    HW248744   4.045   6.364   1.338
14633SOL     OW48745   4.990   5.926   1.311
14633SOL    HW148746   5.016   6.013   1.344
14633SOL    HW248747   4.902   5.940   1.275
14634SOL     OW48748   3.755   7.151   1.326
14634SOL    HW148749   3.680   7.184   1.276
14634SOL    HW248750   3.828   7.207   1.300
14635SOL     OW48751   4.248   6.065   0.842
14635SOL    HW148752   4.255   6.137   0.780
14635SOL    HW248753   4.309   6.088   0.913
14636SOL     OW48754   4.956   6.947   0.395
14636SOL    HW148755   5.011   7.021   0.419
14636SOL    HW248756   4.867   6.977   0.415
14637SOL     OW48757   5.038   7.043   1.140
14637SOL    HW148758   5.093   7.048   1.218
14637SOL    HW248759   4.990   6.961   1.150
14638SOL     OW48760   5.327   6.216   0.531
14638SOL    HW148761   5.266   6.189   0.461
14638SOL    HW248762   5.398   6.261   0.484
14639SOL     OW48763   4.066   7.102   1.365
14639SOL    HW148764   4.024   7.166   1.307
14639SOL    HW248765   4.156   7.097   1.334
14640SOL     OW48766   4.221   6.346   1.681
14640SOL    HW148767   4.241   6.390   1.599
14640SOL    HW248768   4.283   6.274   1.686
14641SOL     OW48769   5.349   6.384   1.704
14641SOL    HW148770   5.260   6.415   1.690
14641SOL    HW248771   5.398   6.415   1.628
14642SOL     OW48772   4.742   5.746   1.794
14642SOL    HW148773   4.789   5.815   1.747
14642SOL    HW248774   4.779   5.664   1.759
14643SOL     OW48775   4.175   5.635   1.760
14643SOL    HW148776   4.128   5.575   1.703
14643SOL    HW248777   4.177   5.717   1.711
14644SOL     OW48778   4.324   6.474   1.026
14644SOL    HW148779   4.391   6.486   0.959
14644SOL    HW248780   4.330   6.553   1.080
14645SOL     OW48781   5.037   6.443   1.000
14645SOL    HW148782   5.085   6.504   0.944
14645SOL    HW248783   5.087   6.361   0.994
14646SOL     OW48784   4.028   5.762   1.228
14646SOL    HW148785   4.003   5.793   1.316
14646SOL    HW248786   4.000   5.670   1.226
14647SOL     OW48787   3.730   6.881   1.377
14647SOL    HW148788   3.812   6.839   1.405
14647SOL    HW248789   3.755   6.971   1.357
14648SOL     OW48790   4.402   6.194   1.035
14648SOL    HW148791   4.489   6.187   0.995
14648SOL    HW248792   4.383   6.288   1.033
14649SOL     OW48793   5.499   6.529   1.885
14649SOL    HW148794   5.447   6.477   1.823
14649SOL    HW248795   5.435   6.563   1.947
14650SOL     OW48796   4.013   5.672   0.636
14650SOL    HW148797   4.029   5.766   0.647
14650SOL    HW248798   4.024   5.636   0.724
14651SOL     OW48799   4.771   6.358   0.939
14651SOL    HW148800   4.861   6.374   0.967
14651SOL    HW248801   4.758   6.264   0.953
14652SOL     OW48802   4.731   7.121   1.727
14652SOL    HW148803   4.691   7.174   1.659
14652SOL    HW248804   4.781   7.054   1.680
14653SOL     OW48805   5.570   7.065   1.592
14653SOL    HW148806   5.589   7.112   1.511
14653SOL    HW248807   5.649   7.077   1.645
14654SOL     OW48808   4.163   6.540   1.870
14654SOL    HW148809   4.108   6.595   1.814
14654SOL    HW248810   4.185   6.465   1.815
14655SOL     OW48811   4.816   6.951   0.883
14655SOL    HW148812   4.823   6.883   0.815
14655SOL    HW248813   4.861   7.026   0.847
14656SOL     OW48814   4.025   6.472   1.018
14656SOL    HW148815   4.121   6.476   1.019
14656SOL    HW248816   4.004   6.391   0.971
14657SOL     OW48817   4.025   6.155   1.002
14657SOL    HW148818   3.994   6.065   0.997
14657SOL    HW248819   4.103   6.156   0.946
14658SOL     OW48820   4.840   5.963   1.659
14658SOL    HW148821   4.794   6.031   1.609
14658SOL    HW248822   4.930   5.995   1.665
14659SOL     OW48823   4.872   5.750   1.486
14659SOL    HW148824   4.852   5.824   1.543
14659SOL    HW248825   4.926   5.786   1.416
14660SOL     OW48826   3.758   6.888   0.186
14660SOL    HW148827   3.662   6.896   0.192
14660SOL    HW248828   3.774   6.858   0.097
14661SOL     OW48829   3.852   7.335   0.995
14661SOL    HW148830   3.829   7.265   0.933
14661SOL    HW248831   3.920   7.385   0.950
14662SOL     OW48832   4.233   7.185   0.941
14662SOL    HW148833   4.300   7.253   0.955
14662SOL    HW248834   4.278   7.117   0.891
14663SOL     OW48835   4.756   6.400   1.314
14663SOL    HW148836   4.825   6.458   1.283
14663SOL    HW248837   4.684   6.414   1.252
14664SOL     OW48838   3.755   6.132   1.155
14664SOL    HW148839   3.823   6.149   1.090
14664SOL    HW248840   3.801   6.136   1.239
14665SOL     OW48841   3.936   6.126   1.780
14665SOL    HW148842   4.023   6.107   1.745
14665SOL    HW248843   3.904   6.198   1.725
14666SOL     OW48844   5.104   6.494   1.648
14666SOL    HW148845   5.131   6.586   1.643
14666SOL    HW248846   5.095   6.467   1.556
14667SOL     OW48847   4.506   6.114   0.412
14667SOL    HW148848   4.544   6.048   0.354
14667SOL    HW248849   4.461   6.174   0.352
14668SOL     OW48850   5.373   6.176   1.187
14668SOL    HW148851   5.377   6.120   1.266
14668SOL    HW248852   5.458   6.163   1.145
14669SOL     OW48853   4.035   7.117   1.838
14669SOL    HW148854   4.024   7.211   1.852
14669SOL    HW248855   3.976   7.095   1.767
14670SOL     OW48856   4.326   6.066   1.265
14670SOL    HW148857   4.324   5.971   1.249
14670SOL    HW248858   4.354   6.104   1.182
14671SOL     OW48859   4.614   7.265   1.517
14671SOL    HW148860   4.563   7.235   1.441
14671SOL    HW248861   4.647   7.351   1.491
14672SOL     OW48862   4.188   6.111   0.245
14672SOL    HW148863   4.257   6.169   0.212
14672SOL    HW248864   4.111   6.132   0.192
14673SOL     OW48865   3.921   6.681   1.474
14673SOL    HW148866   3.866   6.644   1.543
14673SOL    HW248867   3.960   6.605   1.431
14674SOL     OW48868   4.950   6.582   1.219
14674SOL    HW148869   4.980   6.536   1.140
14674SOL    HW248870   4.916   6.665   1.187
14675SOL     OW48871   5.519   7.295   1.163
14675SOL    HW148872   5.591   7.313   1.102
14675SOL    HW248873   5.478   7.215   1.129
14676SOL     OW48874   4.949   7.303   1.117
14676SOL    HW148875   5.018   7.345   1.066
14676SOL    HW248876   4.976   7.212   1.125
14677SOL     OW48877   3.749   6.796   1.109
14677SOL    HW148878   3.745   6.815   1.202
14677SOL    HW248879   3.699   6.866   1.067
14678SOL     OW48880   4.396   7.232   1.713
14678SOL    HW148881   4.327   7.297   1.721
14678SOL    HW248882   4.452   7.264   1.643
14679SOL     OW48883   4.641   5.676   0.122
14679SOL    HW148884   4.705   5.682   0.051
14679SOL    HW248885   4.670   5.600   0.174
14680SOL     OW48886   5.560   5.731   0.504
14680SOL    HW148887   5.595   5.720   0.416
14680SOL    HW248888   5.510   5.650   0.521
14681SOL     OW48889   5.095   7.177   0.481
14681SOL    HW148890   5.165   7.207   0.423
14681SOL    HW248891   5.050   7.257   0.508
14682SOL     OW48892   3.883   7.368   1.884
14682SOL    HW148893   3.830   7.294   1.916
14682SOL    HW248894   3.819   7.433   1.856
14683SOL     OW48895   5.007   6.540   0.670
14683SOL    HW148896   5.077   6.476   0.682
14683SOL    HW248897   5.028   6.582   0.587
14684SOL     OW48898   4.550   6.903   1.434
14684SOL    HW148899   4.483   6.932   1.497
14684SOL    HW248900   4.541   6.963   1.360
14685SOL     OW48901   4.394   7.210   0.149
14685SOL    HW148902   4.341   7.266   0.093
14685SOL    HW248903   4.371   7.121   0.123
14686SOL     OW48904   5.353   7.298   1.398
14686SOL    HW148905   5.404   7.302   1.317
14686SOL    HW248906   5.341   7.389   1.424
14687SOL     OW48907   5.546   5.754   0.986
14687SOL    HW148908   5.578   5.669   0.955
14687SOL    HW248909   5.466   5.769   0.935
14688SOL     OW48910   4.918   7.131   0.055
14688SOL    HW148911   4.972   7.052   0.057
14688SOL    HW248912   4.961   7.187   9.991
14689SOL     OW48913   4.507   6.642   1.362
14689SOL    HW148914   4.485   6.657   1.270
14689SOL    HW248915   4.527   6.729   1.396
14690SOL     OW48916   4.676   6.358   0.170
14690SOL    HW148917   4.707   6.443   0.140
14690SOL    HW248918   4.695   6.356   0.264
14691SOL     OW48919   5.277   7.204   0.042
14691SOL    HW148920   5.202   7.248   0.002
14691SOL    HW248921   5.350   7.265   0.032
14692SOL     OW48922   4.110   6.882   1.518
14692SOL    HW148923   4.088   6.958   1.463
14692SOL    HW248924   4.054   6.812   1.487
14693SOL     OW48925   5.327   6.846   1.274
14693SOL    HW148926   5.413   6.863   1.312
14693SOL    HW248927   5.272   6.916   1.307
14694SOL     OW48928   4.798   6.719   0.725
14694SOL    HW148929   4.750   6.718   0.642
14694SOL    HW248930   4.868   6.655   0.714
14695SOL     OW48931   4.733   5.839   0.962
14695SOL    HW148932   4.714   5.813   0.872
14695SOL    HW248933   4.728   5.758   1.013
14696SOL     OW48934   4.351   7.052   0.535
14696SOL    HW148935   4.339   6.966   0.495
14696SOL    HW248936   4.301   7.112   0.480
14697SOL     OW48937   5.490   5.984   1.407
14697SOL    HW148938   5.572   6.033   1.397
14697SOL    HW248939   5.500   5.909   1.349
14698SOL     OW48940   4.012   6.991   0.237
14698SOL    HW148941   3.923   6.958   0.226
14698SOL    HW248942   4.003   7.063   0.299
14699SOL     OW48943   3.824   6.566   1.746
14699SOL    HW148944   3.754   6.539   1.806
14699SOL    HW248945   3.830   6.660   1.758
14700SOL     OW48946   4.416   5.718   1.534
14700SOL    HW148947   4.480   5.706   1.463
14700SOL    HW248948   4.450   5.791   1.585
14701SOL     OW48949   3.784   5.842   0.021
14701SOL    HW148950   3.717   5.802   9.965
14701SOL    HW248951   3.758   5.934   0.029
14702SOL     OW48952   5.122   6.434   1.381
14702SOL    HW148953   5.062   6.482   1.323
14702SOL    HW248954   5.208   6.442   1.339
14703SOL     OW48955   3.814   5.714   0.269
14703SOL    HW148956   3.789   5.762   0.191
14703SOL    HW248957   3.909   5.704   0.263
14704SOL     OW48958   4.919   6.838   0.138
14704SOL    HW148959   4.840   6.882   0.106
14704SOL    HW248960   4.932   6.873   0.226
14705SOL     OW48961   4.317   6.457   1.441
14705SOL    HW148962   4.368   6.534   1.415
14705SOL    HW248963   4.376   6.383   1.426
14706SOL     OW48964   5.136   7.392   0.934
14706SOL    HW148965   5.107   7.478   0.906
14706SOL    HW248966   5.231   7.396   0.932
14707SOL     OW48967   4.424   6.154   1.694
14707SOL    HW148968   4.489   6.210   1.735
14707SOL    HW248969   4.452   6.065   1.715
14708SOL     OW48970   5.209   6.746   1.617
14708SOL    HW148971   5.197   6.775   1.707
14708SOL    HW248972   5.299   6.772   1.595
14709SOL     OW48973   4.051   7.319   1.546
14709SOL    HW148974   3.968   7.365   1.535
14709SOL    HW248975   4.041   7.240   1.492
14710SOL     OW48976   5.365   6.454   1.250
14710SOL    HW148977   5.373   6.367   1.210
14710SOL    HW248978   5.373   6.515   1.177
14711SOL     OW48979   4.982   5.936   0.442
14711SOL    HW148980   4.998   5.988   0.363
14711SOL    HW248981   5.012   5.992   0.514
14712SOL     OW48982   4.252   6.276   0.676
14712SOL    HW148983   4.302   6.358   0.675
14712SOL    HW248984   4.202   6.278   0.594
14713SOL     OW48985   5.481   5.971   1.689
14713SOL    HW148986   5.491   5.985   1.595
14713SOL    HW248987   5.403   5.916   1.697
14714SOL     OW48988   5.478   6.508   1.496
14714SOL    HW148989   5.464   6.602   1.510
14714SOL    HW248990   5.444   6.491   1.408
14715SOL     OW48991   4.688   6.966   0.047
14715SOL    HW148992   4.624   6.949   0.116
14715SOL    HW248993   4.727   7.051   0.070
14716SOL     OW48994   4.403   7.394   0.950
14716SOL    HW148995   4.376   7.485   0.940
14716SOL    HW248996   4.495   7.393   0.923
14717SOL     OW48997   4.562   6.527   0.889
14717SOL    HW148998   4.636   6.467   0.903
14717SOL    HW248999   4.600   6.614   0.897
14718SOL     OW49000   4.764   6.606   0.083
14718SOL    HW149001   4.689   6.661   0.059
14718SOL    HW249002   4.833   6.668   0.106
14719SOL     OW49003   5.609   7.123   0.826
14719SOL    HW149004   5.552   7.148   0.753
14719SOL    HW249005   5.550   7.087   0.892
14720SOL     OW49006   3.816   6.838   1.796
14720SOL    HW149007   3.745   6.865   1.739
14720SOL    HW249008   3.793   6.874   1.882
14721SOL     OW49009   4.357   6.972   1.621
14721SOL    HW149010   4.272   6.956   1.581
14721SOL    HW249011   4.355   7.065   1.645
14722SOL     OW49012   5.493   5.747   1.255
14722SOL    HW149013   5.497   5.652   1.249
14722SOL    HW249014   5.512   5.778   1.167
14723SOL     OW49015   4.135   5.936   0.590
14723SOL    HW149016   4.176   5.911   0.507
14723SOL    HW249017   4.207   5.972   0.642
14724SOL     OW49018   5.459   7.048   1.062
14724SOL    HW149019   5.377   7.022   1.022
14724SOL    HW249020   5.476   6.982   1.129
14725SOL     OW49021   4.073   6.183   1.273
14725SOL    HW149022   4.160   6.147   1.284
14725SOL    HW249023   4.059   6.186   1.179
14726SOL     OW49024   4.564   7.187   0.647
14726SOL    HW149025   4.558   7.271   0.602
14726SOL    HW249026   4.488   7.138   0.616
14727SOL     OW49027   5.141   5.822   1.107
14727SOL    HW149028   5.149   5.727   1.113
14727SOL    HW249029   5.101   5.849   1.189
14728SOL     OW49030   4.713   5.596   1.095
14728SOL    HW149031   4.650   5.559   1.033
14728SOL    HW249032   4.791   5.541   1.085
14729SOL     OW49033   4.540   6.905   0.267
14729SOL    HW149034   4.469   6.847   0.295
14729SOL    HW249035   4.575   6.942   0.349
14730SOL     OW49036   4.328   7.102   1.295
14730SOL    HW149037   4.326   7.186   1.340
14730SOL    HW249038   4.413   7.101   1.250
14731SOL     OW49039   4.991   5.571   0.185
14731SOL    HW149040   5.035   5.617   0.256
14731SOL    HW249041   4.911   5.536   0.225
14732SOL     OW49042   5.019   6.063   0.694
14732SOL    HW149043   4.972   6.144   0.676
14732SOL    HW249044   4.999   6.043   0.786
14733SOL     OW49045   5.296   5.787   0.876
14733SOL    HW149046   5.246   5.829   0.946
14733SOL    HW249047   5.298   5.852   0.805
14734SOL     OW49048   3.797   6.623   0.297
14734SOL    HW149049   3.760   6.711   0.297
14734SOL    HW249050   3.806   6.602   0.390
14735SOL     OW49051   4.630   7.277   0.288
14735SOL    HW149052   4.553   7.260   0.234
14735SOL    HW249053   4.598   7.334   0.358
14736SOL     OW49054   3.942   6.212   2.047
14736SOL    HW149055   3.851   6.201   2.073
14736SOL    HW249056   3.942   6.195   1.952
14737SOL     OW49057   3.942   5.854   2.838
14737SOL    HW149058   3.977   5.817   2.919
14737SOL    HW249059   3.852   5.821   2.833
14738SOL     OW49060   3.693   5.954   2.493
14738SOL    HW149061   3.618   5.986   2.543
14738SOL    HW249062   3.658   5.882   2.441
14739SOL     OW49063   4.274   6.869   3.050
14739SOL    HW149064   4.196   6.897   3.001
14739SOL    HW249065   4.297   6.945   3.103
14740SOL     OW49066   5.266   7.085   2.541
14740SOL    HW149067   5.224   7.085   2.626
14740SOL    HW249068   5.198   7.114   2.480
14741SOL     OW49069   4.849   6.324   2.556
14741SOL    HW149070   4.904   6.403   2.549
14741SOL    HW249071   4.798   6.338   2.636
14742SOL     OW49072   5.460   6.170   2.133
14742SOL    HW149073   5.433   6.182   2.042
14742SOL    HW249074   5.527   6.102   2.130
14743SOL     OW49075   4.470   6.715   2.947
14743SOL    HW149076   4.395   6.756   2.989
14743SOL    HW249077   4.516   6.786   2.903
14744SOL     OW49078   4.554   6.324   3.660
14744SOL    HW149079   4.501   6.378   3.718
14744SOL    HW249080   4.578   6.383   3.588
14745SOL     OW49081   4.354   6.555   2.582
14745SOL    HW149082   4.440   6.579   2.616
14745SOL    HW249083   4.311   6.638   2.564
14746SOL     OW49084   4.430   6.760   3.708
14746SOL    HW149085   4.474   6.839   3.739
14746SOL    HW249086   4.356   6.792   3.655
14747SOL     OW49087   4.062   7.003   2.926
14747SOL    HW149088   3.980   6.992   2.879
14747SOL    HW249089   4.113   7.064   2.873
14748SOL     OW49090   5.190   7.099   3.251
14748SOL    HW149091   5.245   7.175   3.233
14748SOL    HW249092   5.167   7.108   3.344
14749SOL     OW49093   4.177   5.949   3.310
14749SOL    HW149094   4.243   5.880   3.321
14749SOL    HW249095   4.094   5.905   3.330
14750SOL     OW49096   5.316   6.030   2.600
14750SOL    HW149097   5.283   6.061   2.516
14750SOL    HW249098   5.286   6.095   2.663
14751SOL     OW49099   3.975   7.351   2.312
14751SOL    HW149100   3.991   7.421   2.375
14751SOL    HW249101   4.005   7.388   2.228
14752SOL     OW49102   4.855   6.886   3.578
14752SOL    HW149103   4.877   6.906   3.669
14752SOL    HW249104   4.798   6.809   3.584
14753SOL     OW49105   3.922   7.099   2.424
14753SOL    HW149106   3.948   7.184   2.387
14753SOL    HW249107   3.866   7.122   2.498
14754SOL     OW49108   4.323   7.355   3.304
14754SOL    HW149109   4.231   7.352   3.328
14754SOL    HW249110   4.345   7.448   3.306
14755SOL     OW49111   5.288   5.760   3.369
14755SOL    HW149112   5.328   5.822   3.309
14755SOL    HW249113   5.313   5.674   3.335
14756SOL     OW49114   3.853   6.190   2.429
14756SOL    HW149115   3.798   6.112   2.441
14756SOL    HW249116   3.846   6.237   2.512
14757SOL     OW49117   5.583   7.353   2.222
14757SOL    HW149118   5.672   7.329   2.246
14757SOL    HW249119   5.593   7.430   2.166
14758SOL     OW49120   3.745   7.170   2.009
14758SOL    HW149121   3.731   7.077   2.028
14758SOL    HW249122   3.719   7.214   2.090
14759SOL     OW49123   5.421   6.514   2.485
14759SOL    HW149124   5.480   6.469   2.424
14759SOL    HW249125   5.396   6.594   2.438
14760SOL     OW49126   5.374   6.713   2.289
14760SOL    HW149127   5.461   6.706   2.250
14760SOL    HW249128   5.383   6.779   2.358
14761SOL     OW49129   3.843   6.359   3.423
14761SOL    HW149130   3.920   6.416   3.423
14761SOL    HW249131   3.770   6.419   3.407
14762SOL     OW49132   4.370   6.978   2.614
14762SOL    HW149133   4.317   6.901   2.592
14762SOL    HW249134   4.384   7.022   2.530
14763SOL     OW49135   4.991   6.796   3.277
14763SOL    HW149136   5.015   6.725   3.217
14763SOL    HW249137   5.052   6.787   3.351
14764SOL     OW49138   4.553   5.594   2.374
14764SOL    HW149139   4.592   5.666   2.325
14764SOL    HW249140   4.459   5.612   2.373
14765SOL     OW49141   3.938   6.583   3.229
14765SOL    HW149142   4.008   6.537   3.184
14765SOL    HW249143   3.858   6.555   3.185
14766SOL     OW49144   5.273   6.588   2.060
14766SOL    HW149145   5.215   6.521   2.098
14766SOL    HW249146   5.310   6.633   2.136
14767SOL     OW49147   4.879   7.421   3.466
14767SOL    HW149148   4.877   7.500   3.413
14767SOL    HW249149   4.965   7.382   3.448
14768SOL     OW49150   4.075   5.842   3.747
14768SOL    HW149151   4.112   5.923   3.782
14768SOL    HW249152   3.983   5.864   3.729
14769SOL     OW49153   5.183   7.007   2.807
14769SOL    HW149154   5.118   7.027   2.874
14769SOL    HW249155   5.159   6.921   2.775
14770SOL     OW49156   5.478   7.264   2.470
14770SOL    HW149157   5.495   7.285   2.378
14770SOL    HW249158   5.395   7.216   2.468
14771SOL     OW49159   4.341   6.262   2.174
14771SOL    HW149160   4.387   6.343   2.150
14771SOL    HW249161   4.270   6.292   2.232
14772SOL     OW49162   5.010   6.004   2.800
14772SOL    HW149163   4.920   5.971   2.795
14772SOL    HW249164   5.057   5.936   2.848
14773SOL     OW49165   5.305   7.251   2.180
14773SOL    HW149166   5.387   7.299   2.172
14773SOL    HW249167   5.276   7.236   2.090
14774SOL     OW49168   4.535   6.197   3.274
14774SOL    HW149169   4.518   6.155   3.358
14774SOL    HW249170   4.504   6.134   3.209
14775SOL     OW49171   5.154   6.016   3.543
14775SOL    HW149172   5.146   6.060   3.627
14775SOL    HW249173   5.249   6.013   3.526
14776SOL     OW49174   4.638   6.489   3.448
14776SOL    HW149175   4.703   6.429   3.411
14776SOL    HW249176   4.604   6.538   3.374
14777SOL     OW49177   4.735   5.957   3.060
14777SOL    HW149178   4.644   5.985   3.073
14777SOL    HW249179   4.739   5.934   2.967
14778SOL     OW49180   4.724   6.263   2.317
14778SOL    HW149181   4.772   6.290   2.395
14778SOL    HW249182   4.646   6.218   2.352
14779SOL     OW49183   3.823   6.338   2.657
14779SOL    HW149184   3.887   6.391   2.705
14779SOL    HW249185   3.739   6.379   2.676
14780SOL     OW49186   3.797   7.381   3.469
14780SOL    HW149187   3.833   7.385   3.558
14780SOL    HW249188   3.741   7.458   3.462
14781SOL     OW49189   4.700   5.927   2.006
14781SOL    HW149190   4.724   5.997   1.945
14781SOL    HW249191   4.712   5.846   1.956
14782SOL     OW49192   5.396   6.178   3.705
14782SOL    HW149193   5.392   6.256   3.649
14782SOL    HW249194   5.429   6.109   3.647
14783SOL     OW49195   5.091   6.697   2.330
14783SOL    HW149196   5.184   6.711   2.308
14783SOL    HW249197   5.048   6.778   2.305
14784SOL     OW49198   4.267   5.744   2.782
14784SOL    HW149199   4.280   5.771   2.873
14784SOL    HW249200   4.254   5.825   2.734
14785SOL     OW49201   4.078   7.400   2.730
14785SOL    HW149202   4.113   7.311   2.722
14785SOL    HW249203   4.146   7.449   2.777
14786SOL     OW49204   5.472   6.524   2.760
14786SOL    HW149205   5.456   6.538   2.667
14786SOL    HW249206   5.435   6.601   2.802
14787SOL     OW49207   4.860   7.105   3.414
14787SOL    HW149208   4.869   7.025   3.466
14787SOL    HW249209   4.854   7.075   3.324
14788SOL     OW49210   4.010   6.494   2.099
14788SOL    HW149211   4.059   6.507   2.018
14788SOL    HW249212   3.982   6.402   2.095
14789SOL     OW49213   5.224   6.344   2.559
14789SOL    HW149214   5.236   6.307   2.647
14789SOL    HW249215   5.300   6.400   2.546
14790SOL     OW49216   4.196   6.862   3.575
14790SOL    HW149217   4.148   6.834   3.497
14790SOL    HW249218   4.128   6.876   3.642
14791SOL     OW49219   4.799   7.360   2.029
14791SOL    HW149220   4.786   7.428   1.964
14791SOL    HW249221   4.865   7.302   1.990
14792SOL     OW49222   3.923   5.839   3.338
14792SOL    HW149223   3.851   5.899   3.321
14792SOL    HW249224   3.882   5.762   3.375
14793SOL     OW49225   5.346   6.951   1.987
14793SOL    HW149226   5.312   7.039   1.969
14793SOL    HW249227   5.285   6.893   1.941
14794SOL     OW49228   4.287   7.306   2.188
14794SOL    HW149229   4.261   7.365   2.259
14794SOL    HW249230   4.288   7.361   2.110
14795SOL     OW49231   5.060   5.717   2.304
14795SOL    HW149232   5.066   5.671   2.220
14795SOL    HW249233   5.134   5.778   2.304
14796SOL     OW49234   3.992   7.324   3.079
14796SOL    HW149235   4.014   7.413   3.105
14796SOL    HW249236   3.955   7.333   2.992
14797SOL     OW49237   4.646   7.304   2.760
14797SOL    HW149238   4.725   7.253   2.746
14797SOL    HW249239   4.590   7.282   2.685
14798SOL     OW49240   4.126   6.252   2.365
14798SOL    HW149241   4.146   6.159   2.377
14798SOL    HW249242   4.031   6.257   2.368
14799SOL     OW49243   4.400   5.685   1.907
14799SOL    HW149244   4.471   5.622   1.896
14799SOL    HW249245   4.334   5.658   1.844
14800SOL     OW49246   4.493   5.864   3.704
14800SOL    HW149247   4.565   5.810   3.669
14800SOL    HW249248   4.435   5.801   3.747
14801SOL     OW49249   4.597   7.109   3.052
14801SOL    HW149250   4.578   7.072   2.965
14801SOL    HW249251   4.677   7.063   3.079
14802SOL     OW49252   5.047   6.177   3.298
14802SOL    HW149253   5.103   6.153   3.373
14802SOL    HW249254   5.084   6.259   3.266
14803SOL     OW49255   4.555   6.950   2.824
14803SOL    HW149256   4.642   6.955   2.784
14803SOL    HW249257   4.494   6.965   2.751
14804SOL     OW49258   4.656   6.081   2.744
14804SOL    HW149259   4.617   6.086   2.657
14804SOL    HW249260   4.685   5.990   2.753
14805SOL     OW49261   4.286   5.643   2.339
14805SOL    HW149262   4.211   5.646   2.398
14805SOL    HW249263   4.270   5.713   2.276
14806SOL     OW49264   5.156   6.774   1.886
14806SOL    HW149265   5.188   6.704   1.943
14806SOL    HW249266   5.073   6.800   1.925
14807SOL     OW49267   4.795   6.296   3.335
14807SOL    HW149268   4.724   6.237   3.311
14807SOL    HW249269   4.875   6.246   3.317
14808SOL     OW49270   4.893   7.206   2.654
14808SOL    HW149271   4.910   7.259   2.576
14808SOL    HW249272   4.937   7.253   2.725
14809SOL     OW49273   4.185   6.784   2.519
14809SOL    HW149274   4.126   6.859   2.514
14809SOL    HW249275   4.174   6.739   2.435
14810SOL     OW49276   4.888   7.419   2.413
14810SOL    HW149277   4.964   7.470   2.384
14810SOL    HW249278   4.853   7.468   2.487
14811SOL     OW49279   4.789   6.179   1.943
14811SOL    HW149280   4.723   6.224   1.889
14811SOL    HW249281   4.873   6.212   1.909
14812SOL     OW49282   3.837   6.131   3.267
14812SOL    HW149283   3.928   6.139   3.237
14812SOL    HW249284   3.822   6.210   3.320
14813SOL     OW49285   4.293   5.807   3.053
14813SOL    HW149286   4.330   5.777   3.136
14813SOL    HW249287   4.198   5.797   3.064
14814SOL     OW49288   4.531   6.108   2.498
14814SOL    HW149289   4.459   6.168   2.517
14814SOL    HW249290   4.505   6.062   2.419
14815SOL     OW49291   4.740   5.643   2.595
14815SOL    HW149292   4.678   5.640   2.522
14815SOL    HW249293   4.714   5.569   2.650
14816SOL     OW49294   5.179   6.747   2.698
14816SOL    HW149295   5.117   6.694   2.648
14816SOL    HW249296   5.247   6.771   2.634
14817SOL     OW49297   5.212   6.202   2.804
14817SOL    HW149298   5.141   6.139   2.816
14817SOL    HW249299   5.267   6.191   2.882
14818SOL     OW49300   5.557   6.388   2.278
14818SOL    HW149301   5.621   6.340   2.330
14818SOL    HW249302   5.525   6.325   2.214
14819SOL     OW49303   4.156   6.941   2.017
14819SOL    HW149304   4.098   6.949   2.093
14819SOL    HW249305   4.120   7.002   1.953
14820SOL     OW49306   5.387   6.835   2.538
14820SOL    HW149307   5.482   6.835   2.533
14820SOL    HW249308   5.363   6.928   2.535
14821SOL     OW49309   5.123   6.166   1.920
14821SOL    HW149310   5.103   6.131   2.006
14821SOL    HW249311   5.219   6.160   1.914
14822SOL     OW49312   4.236   5.788   2.110
14822SOL    HW149313   4.309   5.781   2.048
14822SOL    HW249314   4.208   5.880   2.103
14823SOL     OW49315   5.446   6.822   3.421
14823SOL    HW149316   5.517   6.775   3.464
14823SOL    HW249317   5.467   6.914   3.433
14824SOL     OW49318   4.790   6.948   3.182
14824SOL    HW149319   4.709   6.925   3.228
14824SOL    HW249320   4.856   6.891   3.221
14825SOL     OW49321   5.316   7.235   3.520
14825SOL    HW149322   5.328   7.320   3.477
14825SOL    HW249323   5.394   7.185   3.496
14826SOL     OW49324   4.843   6.784   2.960
14826SOL    HW149325   4.806   6.843   3.026
14826SOL    HW249326   4.839   6.835   2.879
14827SOL     OW49327   5.327   6.713   2.925
14827SOL    HW149328   5.318   6.797   2.971
14827SOL    HW249329   5.266   6.719   2.852
14828SOL     OW49330   4.663   5.660   3.233
14828SOL    HW149331   4.677   5.646   3.139
14828SOL    HW249332   4.740   5.708   3.262
14829SOL     OW49333   4.688   6.669   3.648
14829SOL    HW149334   4.601   6.704   3.667
14829SOL    HW249335   4.675   6.610   3.574
14830SOL     OW49336   4.369   6.679   2.120
14830SOL    HW149337   4.302   6.671   2.188
14830SOL    HW249338   4.431   6.608   2.138
14831SOL     OW49339   4.139   6.428   3.119
14831SOL    HW149340   4.211   6.437   3.182
14831SOL    HW249341   4.114   6.336   3.124
14832SOL     OW49342   4.989   5.948   3.154
14832SOL    HW149343   5.014   6.034   3.188
14832SOL    HW249344   4.903   5.962   3.114
14833SOL     OW49345   3.792   7.177   3.184
14833SOL    HW149346   3.724   7.229   3.140
14833SOL    HW249347   3.874   7.221   3.160
14834SOL     OW49348   4.126   6.684   2.267
14834SOL    HW149349   4.072   6.761   2.246
14834SOL    HW249350   4.083   6.612   2.222
14835SOL     OW49351   4.253   6.071   2.735
14835SOL    HW149352   4.259   6.114   2.650
14835SOL    HW249353   4.317   6.116   2.790
14836SOL     OW49354   4.971   6.942   2.264
14836SOL    HW149355   5.022   7.021   2.281
14836SOL    HW249356   4.885   6.960   2.302
14837SOL     OW49357   5.023   7.069   3.032
14837SOL    HW149358   5.080   7.079   3.108
14837SOL    HW249359   4.945   7.025   3.066
14838SOL     OW49360   5.268   6.156   2.343
14838SOL    HW149361   5.253   6.236   2.394
14838SOL    HW249362   5.334   6.180   2.279
14839SOL     OW49363   4.077   7.048   3.202
14839SOL    HW149364   4.063   7.047   3.107
14839SOL    HW249365   4.165   7.085   3.212
14840SOL     OW49366   4.147   6.379   3.481
14840SOL    HW149367   4.217   6.405   3.420
14840SOL    HW249368   4.136   6.285   3.467
14841SOL     OW49369   5.355   6.389   3.536
14841SOL    HW149370   5.266   6.423   3.523
14841SOL    HW249371   5.405   6.423   3.462
14842SOL     OW49372   4.716   5.729   3.623
14842SOL    HW149373   4.783   5.797   3.612
14842SOL    HW249374   4.764   5.647   3.621
14843SOL     OW49375   4.185   5.617   3.631
14843SOL    HW149376   4.134   5.583   3.558
14843SOL    HW249377   4.142   5.698   3.655
14844SOL     OW49378   4.318   6.474   2.909
14844SOL    HW149379   4.365   6.558   2.914
14844SOL    HW249380   4.256   6.477   2.981
14845SOL     OW49381   5.073   6.440   2.863
14845SOL    HW149382   5.035   6.466   2.778
14845SOL    HW249383   5.124   6.362   2.843
14846SOL     OW49384   5.018   6.164   2.187
14846SOL    HW149385   5.083   6.138   2.252
14846SOL    HW249386   5.028   6.259   2.181
14847SOL     OW49387   4.025   5.754   3.089
14847SOL    HW149388   3.977   5.785   3.165
14847SOL    HW249389   4.003   5.661   3.084
14848SOL     OW49390   3.745   6.912   3.144
14848SOL    HW149391   3.653   6.886   3.145
14848SOL    HW249392   3.743   7.007   3.129
14849SOL     OW49393   4.425   6.221   2.888
14849SOL    HW149394   4.506   6.230   2.837
14849SOL    HW249395   4.389   6.310   2.890
14850SOL     OW49396   5.462   6.519   3.760
14850SOL    HW149397   5.413   6.479   3.688
14850SOL    HW249398   5.394   6.558   3.816
14851SOL     OW49399   4.046   5.635   2.479
14851SOL    HW149400   4.011   5.723   2.496
14851SOL    HW249401   4.048   5.594   2.565
14852SOL     OW49402   5.269   5.891   2.263
14852SOL    HW149403   5.352   5.855   2.296
14852SOL    HW249404   5.269   5.982   2.291
14853SOL     OW49405   4.712   6.342   2.799
14853SOL    HW149406   4.711   6.353   2.894
14853SOL    HW249407   4.704   6.248   2.786
14854SOL     OW49408   5.546   7.077   3.444
14854SOL    HW149409   5.566   7.108   3.356
14854SOL    HW249410   5.625   7.095   3.495
14855SOL     OW49411   4.095   6.507   3.722
14855SOL    HW149412   4.182   6.521   3.759
14855SOL    HW249413   4.111   6.462   3.639
14856SOL     OW49414   5.201   5.833   1.996
14856SOL    HW149415   5.154   5.752   2.015
14856SOL    HW249416   5.234   5.863   2.081
14857SOL     OW49417   4.994   6.404   1.882
14857SOL    HW149418   5.049   6.325   1.886
14857SOL    HW249419   5.020   6.447   1.800
14858SOL     OW49420   4.817   6.955   2.742
14858SOL    HW149421   4.826   6.887   2.674
14858SOL    HW249422   4.850   7.035   2.701
14859SOL     OW49423   4.010   6.525   2.782
14859SOL    HW149424   4.094   6.519   2.737
14859SOL    HW249425   4.026   6.486   2.868
14860SOL     OW49426   4.030   6.104   2.897
14860SOL    HW149427   3.989   6.021   2.873
14860SOL    HW249428   4.104   6.113   2.837
14861SOL     OW49429   4.883   5.952   3.582
14861SOL    HW149430   4.827   6.015   3.626
14861SOL    HW249431   4.964   6.000   3.565
14862SOL     OW49432   4.903   5.789   3.355
14862SOL    HW149433   4.857   5.855   3.406
14862SOL    HW249434   4.932   5.836   3.276
14863SOL     OW49435   3.733   6.885   2.070
14863SOL    HW149436   3.644   6.903   2.039
14863SOL    HW249437   3.730   6.794   2.099
14864SOL     OW49438   3.839   7.316   2.841
14864SOL    HW149439   3.799   7.262   2.773
14864SOL    HW249440   3.908   7.365   2.796
14865SOL     OW49441   4.222   7.162   2.769
14865SOL    HW149442   4.278   7.232   2.803
14865SOL    HW249443   4.281   7.110   2.714
14866SOL     OW49444   4.679   6.351   3.071
14866SOL    HW149445   4.742   6.388   3.134
14866SOL    HW249446   4.615   6.306   3.125
14867SOL     OW49447   3.759   6.161   2.996
14867SOL    HW149448   3.837   6.156   2.940
14867SOL    HW249449   3.792   6.149   3.085
14868SOL     OW49450   3.897   6.145   3.594
14868SOL    HW149451   3.907   6.082   3.522
14868SOL    HW249452   3.867   6.226   3.552
14869SOL     OW49453   5.102   6.488   3.501
14869SOL    HW149454   5.114   6.583   3.505
14869SOL    HW249455   5.096   6.468   3.408
14870SOL     OW49456   4.543   6.073   2.199
14870SOL    HW149457   4.543   6.016   2.122
14870SOL    HW249458   4.472   6.135   2.183
14871SOL     OW49459   5.376   6.165   3.029
14871SOL    HW149460   5.381   6.110   3.107
14871SOL    HW249461   5.467   6.179   3.003
14872SOL     OW49462   3.957   7.111   3.547
14872SOL    HW149463   3.950   7.189   3.601
14872SOL    HW249464   3.957   7.038   3.609
14873SOL     OW49465   4.466   6.025   3.073
14873SOL    HW149466   4.401   5.955   3.058
14873SOL    HW249467   4.446   6.090   3.006
14874SOL     OW49468   4.635   7.279   3.277
14874SOL    HW149469   4.619   7.233   3.195
14874SOL    HW249470   4.634   7.372   3.253
14875SOL     OW49471   4.159   6.052   2.128
14875SOL    HW149472   4.226   6.121   2.132
14875SOL    HW249473   4.080   6.098   2.098
14876SOL     OW49474   3.950   6.791   3.407
14876SOL    HW149475   3.915   6.743   3.482
14876SOL    HW249476   3.953   6.726   3.337
14877SOL     OW49477   5.009   6.599   3.074
14877SOL    HW149478   5.035   6.544   3.000
14877SOL    HW249479   4.948   6.663   3.036
14878SOL     OW49480   5.049   6.437   2.152
14878SOL    HW149481   5.011   6.516   2.191
14878SOL    HW249482   5.021   6.440   2.061
14879SOL     OW49483   5.497   7.336   2.932
14879SOL    HW149484   5.493   7.431   2.926
14879SOL    HW249485   5.586   7.313   2.906
14880SOL     OW49486   4.980   7.312   2.897
14880SOL    HW149487   5.066   7.351   2.882
14880SOL    HW249488   4.998   7.232   2.946
14881SOL     OW49489   3.799   6.861   2.869
14881SOL    HW149490   3.803   6.860   2.964
14881SOL    HW249491   3.726   6.920   2.849
14882SOL     OW49492   4.472   7.302   3.532
14882SOL    HW149493   4.417   7.365   3.579
14882SOL    HW249494   4.443   7.308   3.441
14883SOL     OW49495   5.503   5.780   2.356
14883SOL    HW149496   5.554   5.764   2.276
14883SOL    HW249497   5.478   5.693   2.386
14884SOL     OW49498   5.094   7.184   2.342
14884SOL    HW149499   5.167   7.205   2.284
14884SOL    HW249500   5.041   7.264   2.344
14885SOL     OW49501   3.926   7.335   3.713
14885SOL    HW149502   3.874   7.279   3.770
14885SOL    HW249503   3.965   7.400   3.772
14886SOL     OW49504   5.028   6.538   2.543
14886SOL    HW149505   5.095   6.470   2.539
14886SOL    HW249506   5.043   6.591   2.465
14887SOL     OW49507   4.536   6.902   3.295
14887SOL    HW149508   4.516   6.927   3.385
14887SOL    HW249509   4.481   6.958   3.241
14888SOL     OW49510   4.434   7.146   1.970
14888SOL    HW149511   4.425   7.179   1.880
14888SOL    HW249512   4.347   7.158   2.008
14889SOL     OW49513   5.354   7.308   3.203
14889SOL    HW149514   5.395   7.345   3.124
14889SOL    HW249515   5.345   7.382   3.262
14890SOL     OW49516   5.562   5.755   2.858
14890SOL    HW149517   5.595   5.670   2.830
14890SOL    HW249518   5.482   5.767   2.806
14891SOL     OW49519   3.957   5.883   2.556
14891SOL    HW149520   3.868   5.914   2.537
14891SOL    HW249521   3.963   5.885   2.651
14892SOL     OW49522   4.961   7.238   1.838
14892SOL    HW149523   4.885   7.189   1.806
14892SOL    HW249524   4.976   7.304   1.770
14893SOL     OW49525   4.530   6.628   3.229
14893SOL    HW149526   4.533   6.633   3.133
14893SOL    HW249527   4.529   6.720   3.257
14894SOL     OW49528   4.560   6.467   2.155
14894SOL    HW149529   4.620   6.493   2.085
14894SOL    HW249530   4.614   6.416   2.215
14895SOL     OW49531   5.226   7.192   1.920
14895SOL    HW149532   5.133   7.208   1.901
14895SOL    HW249533   5.270   7.203   1.835
14896SOL     OW49534   5.354   6.919   3.115
14896SOL    HW149535   5.394   6.980   3.054
14896SOL    HW249536   5.293   6.972   3.167
14897SOL     OW49537   4.815   6.724   2.597
14897SOL    HW149538   4.736   6.679   2.628
14897SOL    HW249539   4.876   6.653   2.575
14898SOL     OW49540   4.772   5.829   2.806
14898SOL    HW149541   4.772   5.785   2.720
14898SOL    HW249542   4.764   5.757   2.869
14899SOL     OW49543   4.382   7.087   2.358
14899SOL    HW149544   4.431   7.028   2.300
14899SOL    HW249545   4.333   7.144   2.298
14900SOL     OW49546   5.471   5.977   3.257
14900SOL    HW149547   5.553   6.026   3.254
14900SOL    HW249548   5.485   5.902   3.200
14901SOL     OW49549   3.964   6.907   2.231
14901SOL    HW149550   3.887   6.913   2.173
14901SOL    HW249551   3.952   6.979   2.293
14902SOL     OW49552   3.871   6.654   3.633
14902SOL    HW149553   3.786   6.623   3.665
14902SOL    HW249554   3.934   6.591   3.668
14903SOL     OW49555   4.416   5.770   3.318
14903SOL    HW149556   4.500   5.736   3.287
14903SOL    HW249557   4.440   5.833   3.386
14904SOL     OW49558   3.769   5.917   1.878
14904SOL    HW149559   3.691   5.909   1.822
14904SOL    HW249560   3.805   6.003   1.857
14905SOL     OW49561   5.147   6.429   3.236
14905SOL    HW149562   5.086   6.481   3.185
14905SOL    HW249563   5.233   6.450   3.201
14906SOL     OW49564   3.758   5.776   2.125
14906SOL    HW149565   3.744   5.811   2.037
14906SOL    HW249566   3.792   5.850   2.175
14907SOL     OW49567   4.916   6.863   1.993
14907SOL    HW149568   4.826   6.894   1.979
14907SOL    HW249569   4.939   6.896   2.080
14908SOL     OW49570   4.354   6.420   3.294
14908SOL    HW149571   4.407   6.498   3.278
14908SOL    HW249572   4.415   6.347   3.288
14909SOL     OW49573   5.230   7.405   2.839
14909SOL    HW149574   5.242   7.491   2.798
14909SOL    HW249575   5.318   7.377   2.863
14910SOL     OW49576   4.504   6.082   3.524
14910SOL    HW149577   4.508   6.163   3.575
14910SOL    HW249578   4.486   6.013   3.588
14911SOL     OW49579   5.181   6.751   3.485
14911SOL    HW149580   5.161   6.786   3.572
14911SOL    HW249581   5.268   6.785   3.464
14912SOL     OW49582   4.074   7.330   3.415
14912SOL    HW149583   3.993   7.375   3.394
14912SOL    HW249584   4.047   7.244   3.448
14913SOL     OW49585   5.383   6.528   3.115
14913SOL    HW149586   5.434   6.455   3.080
14913SOL    HW249587   5.350   6.574   3.038
14914SOL     OW49588   4.866   5.925   2.316
14914SOL    HW149589   4.922   5.847   2.308
14914SOL    HW249590   4.898   5.969   2.395
14915SOL     OW49591   4.325   6.283   2.549
14915SOL    HW149592   4.341   6.376   2.568
14915SOL    HW249593   4.254   6.284   2.485
14916SOL     OW49594   5.438   5.958   3.533
14916SOL    HW149595   5.464   5.988   3.446
14916SOL    HW249596   5.420   5.865   3.522
14917SOL     OW49597   4.653   6.991   1.953
14917SOL    HW149598   4.578   7.048   1.971
14917SOL    HW249599   4.695   7.031   1.877
14918SOL     OW49600   4.354   7.389   2.859
14918SOL    HW149601   4.335   7.466   2.913
14918SOL    HW249602   4.448   7.393   2.843
14919SOL     OW49603   4.601   6.586   2.720
14919SOL    HW149604   4.637   6.500   2.745
14919SOL    HW249605   4.567   6.621   2.802
14920SOL     OW49606   4.751   6.514   1.958
14920SOL    HW149607   4.737   6.587   1.898
14920SOL    HW249608   4.836   6.478   1.934
14921SOL     OW49609   5.620   7.138   2.662
14921SOL    HW149610   5.569   7.188   2.598
14921SOL    HW249611   5.555   7.099   2.720
14922SOL     OW49612   3.955   6.899   3.725
14922SOL    HW149613   3.928   6.814   3.690
14922SOL    HW249614   3.893   6.917   3.795
14923SOL     OW49615   3.812   6.792   2.516
14923SOL    HW149616   3.730   6.840   2.510
14923SOL    HW249617   3.847   6.793   2.427
14924SOL     OW49618   4.432   7.012   3.525
14924SOL    HW149619   4.344   6.979   3.540
14924SOL    HW249620   4.427   7.106   3.541
14925SOL     OW49621   5.491   5.739   3.123
14925SOL    HW149622   5.504   5.644   3.121
14925SOL    HW249623   5.514   5.767   3.034
14926SOL     OW49624   4.174   5.983   2.405
14926SOL    HW149625   4.152   5.975   2.312
14926SOL    HW249626   4.098   5.948   2.451
14927SOL     OW49627   5.444   7.062   2.884
14927SOL    HW149628   5.356   7.051   2.848
14927SOL    HW249629   5.450   7.154   2.906
14928SOL     OW49630   4.087   6.161   3.159
14928SOL    HW149631   4.134   6.089   3.202
14928SOL    HW249632   4.078   6.132   3.068
14929SOL     OW49633   4.529   7.259   2.521
14929SOL    HW149634   4.533   7.342   2.473
14929SOL    HW249635   4.485   7.199   2.461
14930SOL     OW49636   5.127   5.812   2.957
14930SOL    HW149637   5.114   5.718   2.969
14930SOL    HW249638   5.089   5.853   3.034
14931SOL     OW49639   4.752   5.597   2.969
14931SOL    HW149640   4.711   5.530   2.913
14931SOL    HW249641   4.841   5.564   2.983
14932SOL     OW49642   4.517   6.909   2.193
14932SOL    HW149643   4.469   6.832   2.164
14932SOL    HW249644   4.576   6.930   2.120
14933SOL     OW49645   4.356   7.108   3.182
14933SOL    HW149646   4.344   7.194   3.223
14933SOL    HW249647   4.430   7.120   3.122
14934SOL     OW49648   5.087   5.591   2.060
14934SOL    HW149649   5.139   5.526   2.013
14934SOL    HW249650   5.001   5.550   2.070
14935SOL     OW49651   4.958   6.068   2.530
14935SOL    HW149652   4.923   6.157   2.535
14935SOL    HW249653   4.991   6.051   2.618
14936SOL     OW49654   5.311   5.789   2.747
14936SOL    HW149655   5.251   5.820   2.815
14936SOL    HW249656   5.312   5.859   2.682
14937SOL     OW49657   3.759   6.630   2.193
14937SOL    HW149658   3.836   6.610   2.140
14937SOL    HW249659   3.729   6.545   2.225
14938SOL     OW49660   4.559   7.288   2.189
14938SOL    HW149661   4.568   7.246   2.104
14938SOL    HW249662   4.464   7.298   2.201
14939SOL     OW49663   3.929   6.175   3.870
14939SOL    HW149664   3.842   6.160   3.906
14939SOL    HW249665   3.916   6.181   3.776
14940SOL     OW49666   3.883   5.868   4.727
14940SOL    HW149667   3.934   5.837   4.802
14940SOL    HW249668   3.792   5.854   4.753
14941SOL     OW49669   3.707   5.971   4.358
14941SOL    HW149670   3.622   6.002   4.390
14941SOL    HW249671   3.688   5.886   4.318
14942SOL     OW49672   4.294   6.867   4.937
14942SOL    HW149673   4.220   6.891   4.881
14942SOL    HW249674   4.310   6.944   4.991
14943SOL     OW49675   5.272   7.106   4.437
14943SOL    HW149676   5.226   7.099   4.520
14943SOL    HW249677   5.202   7.119   4.372
14944SOL     OW49678   4.755   6.365   4.421
14944SOL    HW149679   4.829   6.412   4.382
14944SOL    HW249680   4.678   6.405   4.381
14945SOL     OW49681   5.570   6.169   3.922
14945SOL    HW149682   5.504   6.198   3.859
14945SOL    HW249683   5.588   6.078   3.897
14946SOL     OW49684   4.482   6.715   4.818
14946SOL    HW149685   4.411   6.755   4.867
14946SOL    HW249686   4.516   6.786   4.763
14947SOL     OW49687   4.630   6.331   5.523
14947SOL    HW149688   4.644   6.394   5.594
14947SOL    HW249689   4.638   6.383   5.443
14948SOL     OW49690   4.402   6.579   4.404
14948SOL    HW149691   4.465   6.650   4.421
14948SOL    HW249692   4.316   6.620   4.417
14949SOL     OW49693   4.421   6.741   5.595
14949SOL    HW149694   4.434   6.798   5.671
14949SOL    HW249695   4.352   6.784   5.545
14950SOL     OW49696   4.094   6.979   4.784
14950SOL    HW149697   4.012   6.947   4.746
14950SOL    HW249698   4.127   7.041   4.720
14951SOL     OW49699   5.206   7.079   5.126
14951SOL    HW149700   5.242   7.161   5.091
14951SOL    HW249701   5.221   7.084   5.220
14952SOL     OW49702   4.156   5.952   5.177
14952SOL    HW149703   4.223   5.889   5.203
14952SOL    HW249704   4.074   5.910   5.204
14953SOL     OW49705   5.357   6.044   4.472
14953SOL    HW149706   5.343   6.089   4.389
14953SOL    HW249707   5.315   6.101   4.537
14954SOL     OW49708   3.973   7.321   4.166
14954SOL    HW149709   3.989   7.393   4.226
14954SOL    HW249710   4.054   7.315   4.114
14955SOL     OW49711   3.873   7.100   4.294
14955SOL    HW149712   3.908   7.178   4.251
14955SOL    HW249713   3.811   7.134   4.359
14956SOL     OW49714   3.910   6.621   4.572
14956SOL    HW149715   3.949   6.544   4.614
14956SOL    HW249716   3.900   6.685   4.644
14957SOL     OW49717   4.317   7.325   5.224
14957SOL    HW149718   4.227   7.334   5.256
14957SOL    HW249719   4.342   7.413   5.195
14958SOL     OW49720   4.340   6.550   3.866
14958SOL    HW149721   4.370   6.620   3.808
14958SOL    HW249722   4.365   6.580   3.954
14959SOL     OW49723   3.847   6.221   4.298
14959SOL    HW149724   3.806   6.135   4.309
14959SOL    HW249725   3.799   6.278   4.358
14960SOL     OW49726   5.599   7.354   4.051
14960SOL    HW149727   5.674   7.336   4.107
14960SOL    HW249728   5.609   7.446   4.026
14961SOL     OW49729   3.787   7.154   3.858
14961SOL    HW149730   3.743   7.071   3.877
14961SOL    HW249731   3.751   7.215   3.923
14962SOL     OW49732   5.365   6.494   4.359
14962SOL    HW149733   5.424   6.530   4.425
14962SOL    HW249734   5.360   6.562   4.291
14963SOL     OW49735   5.365   6.701   4.167
14963SOL    HW149736   5.449   6.696   4.121
14963SOL    HW249737   5.378   6.769   4.233
14964SOL     OW49738   3.818   6.359   5.299
14964SOL    HW149739   3.891   6.421   5.301
14964SOL    HW249740   3.741   6.414   5.284
14965SOL     OW49741   4.337   6.951   4.460
14965SOL    HW149742   4.275   6.878   4.454
14965SOL    HW249743   4.333   6.994   4.374
14966SOL     OW49744   5.005   6.785   5.129
14966SOL    HW149745   5.040   6.719   5.070
14966SOL    HW249746   5.065   6.785   5.204
14967SOL     OW49747   4.549   5.623   4.232
14967SOL    HW149748   4.572   5.711   4.200
14967SOL    HW249749   4.454   5.625   4.241
14968SOL     OW49750   3.941   6.536   5.049
14968SOL    HW149751   4.027   6.506   5.020
14968SOL    HW249752   3.883   6.518   4.974
14969SOL     OW49753   5.244   6.602   3.926
14969SOL    HW149754   5.176   6.542   3.957
14969SOL    HW249755   5.280   6.640   4.006
14970SOL     OW49756   4.887   7.415   5.353
14970SOL    HW149757   4.881   7.484   5.287
14970SOL    HW249758   4.981   7.404   5.368
14971SOL     OW49759   4.071   5.839   5.611
14971SOL    HW149760   4.106   5.920   5.648
14971SOL    HW249761   3.978   5.859   5.595
14972SOL     OW49762   5.181   7.012   4.682
14972SOL    HW149763   5.125   7.028   4.759
14972SOL    HW249764   5.155   6.926   4.651
14973SOL     OW49765   5.421   7.318   4.329
14973SOL    HW149766   5.397   7.301   4.238
14973SOL    HW249767   5.355   7.272   4.381
14974SOL     OW49768   4.297   6.294   4.006
14974SOL    HW149769   4.296   6.379   3.961
14974SOL    HW249770   4.232   6.303   4.076
14975SOL     OW49771   5.007   5.981   4.636
14975SOL    HW149772   4.917   5.949   4.638
14975SOL    HW249773   5.054   5.923   4.697
14976SOL     OW49774   5.339   7.255   4.065
14976SOL    HW149775   5.426   7.291   4.052
14976SOL    HW249776   5.303   7.244   3.977
14977SOL     OW49777   4.542   6.194   5.145
14977SOL    HW149778   4.512   6.171   5.233
14977SOL    HW249779   4.509   6.124   5.089
14978SOL     OW49780   5.110   6.044   5.415
14978SOL    HW149781   5.116   6.092   5.498
14978SOL    HW249782   5.182   5.981   5.418
14979SOL     OW49783   4.676   6.509   5.299
14979SOL    HW149784   4.737   6.451   5.253
14979SOL    HW249785   4.630   6.555   5.229
14980SOL     OW49786   4.733   5.941   4.921
14980SOL    HW149787   4.643   5.964   4.945
14980SOL    HW249788   4.728   5.916   4.829
14981SOL     OW49789   4.778   6.230   4.162
14981SOL    HW149790   4.779   6.233   4.258
14981SOL    HW249791   4.688   6.205   4.140
14982SOL     OW49792   3.861   7.521   5.337
14982SOL    HW149793   3.781   7.491   5.380
14982SOL    HW249794   3.831   7.582   5.270
14983SOL     OW49795   4.625   5.999   3.903
14983SOL    HW149796   4.677   6.059   3.849
14983SOL    HW249797   4.570   5.952   3.841
14984SOL     OW49798   5.481   6.202   5.561
14984SOL    HW149799   5.415   6.256   5.517
14984SOL    HW249800   5.559   6.257   5.563
14985SOL     OW49801   5.091   6.736   4.254
14985SOL    HW149802   5.178   6.740   4.213
14985SOL    HW249803   5.041   6.806   4.211
14986SOL     OW49804   4.253   5.726   4.647
14986SOL    HW149805   4.263   5.762   4.735
14986SOL    HW249806   4.243   5.802   4.590
14987SOL     OW49807   4.706   7.041   4.197
14987SOL    HW149808   4.686   7.106   4.129
14987SOL    HW249809   4.675   7.081   4.278
14988SOL     OW49810   4.075   7.408   4.607
14988SOL    HW149811   4.129   7.329   4.606
14988SOL    HW249812   4.136   7.478   4.633
14989SOL     OW49813   5.549   6.610   4.533
14989SOL    HW149814   5.587   6.678   4.478
14989SOL    HW249815   5.550   6.646   4.622
14990SOL     OW49816   4.847   7.027   5.287
14990SOL    HW149817   4.935   7.016   5.251
14990SOL    HW249818   4.809   7.098   5.235
14991SOL     OW49819   3.995   6.530   3.980
14991SOL    HW149820   4.028   6.532   3.890
14991SOL    HW249821   3.956   6.443   3.990
14992SOL     OW49822   5.163   6.326   4.421
14992SOL    HW149823   5.173   6.295   4.511
14992SOL    HW249824   5.232   6.392   4.411
14993SOL     OW49825   4.220   6.882   5.463
14993SOL    HW149826   4.192   6.900   5.373
14993SOL    HW249827   4.138   6.863   5.510
14994SOL     OW49828   4.846   7.364   3.927
14994SOL    HW149829   4.776   7.337   3.987
14994SOL    HW249830   4.821   7.328   3.842
14995SOL     OW49831   3.911   5.827   5.220
14995SOL    HW149832   3.828   5.875   5.224
14995SOL    HW249833   3.892   5.742   5.259
14996SOL     OW49834   5.355   6.967   3.827
14996SOL    HW149835   5.327   7.058   3.819
14996SOL    HW249836   5.281   6.916   3.793
14997SOL     OW49837   4.254   7.322   4.075
14997SOL    HW149838   4.268   7.391   4.140
14997SOL    HW249839   4.278   7.362   3.991
14998SOL     OW49840   5.116   5.710   4.177
14998SOL    HW149841   5.112   5.671   4.089
14998SOL    HW249842   5.199   5.679   4.213
14999SOL     OW49843   3.957   7.361   4.953
14999SOL    HW149844   4.018   7.290   4.971
14999SOL    HW249845   3.930   7.348   4.862
15000SOL     OW49846   4.662   7.298   4.590
15000SOL    HW149847   4.750   7.262   4.577
15000SOL    HW249848   4.609   7.258   4.521
15001SOL     OW49849   4.125   6.254   4.229
15001SOL    HW149850   4.142   6.160   4.238
15001SOL    HW249851   4.031   6.263   4.246
15002SOL     OW49852   5.285   5.800   5.408
15002SOL    HW149853   5.298   5.819   5.501
15002SOL    HW249854   5.218   5.731   5.407
15003SOL     OW49855   4.355   5.661   3.842
15003SOL    HW149856   4.385   5.573   3.865
15003SOL    HW249857   4.294   5.647   3.769
15004SOL     OW49858   4.461   5.861   5.481
15004SOL    HW149859   4.543   5.811   5.480
15004SOL    HW249860   4.410   5.822   5.552
15005SOL     OW49861   4.601   7.088   4.907
15005SOL    HW149862   4.569   7.061   4.821
15005SOL    HW249863   4.677   7.032   4.923
15006SOL     OW49864   5.027   6.156   5.171
15006SOL    HW149865   5.061   6.130   5.256
15006SOL    HW249866   5.068   6.240   5.153
15007SOL     OW49867   4.541   6.940   4.667
15007SOL    HW149868   4.627   6.952   4.627
15007SOL    HW249869   4.479   6.957   4.597
15008SOL     OW49870   4.663   6.125   4.603
15008SOL    HW149871   4.643   6.113   4.510
15008SOL    HW249872   4.687   6.038   4.633
15009SOL     OW49873   4.277   5.637   4.225
15009SOL    HW149874   4.200   5.634   4.283
15009SOL    HW249875   4.261   5.712   4.168
15010SOL     OW49876   5.136   6.806   3.756
15010SOL    HW149877   5.161   6.735   3.815
15010SOL    HW249878   5.054   6.839   3.792
15011SOL     OW49879   3.974   5.634   3.899
15011SOL    HW149880   4.023   5.705   3.856
15011SOL    HW249881   4.041   5.581   3.941
15012SOL     OW49882   4.680   5.849   4.130
15012SOL    HW149883   4.653   5.908   4.059
15012SOL    HW249884   4.734   5.783   4.087
15013SOL     OW49885   4.792   6.309   5.139
15013SOL    HW149886   4.714   6.256   5.151
15013SOL    HW249887   4.865   6.249   5.153
15014SOL     OW49888   4.913   7.191   4.519
15014SOL    HW149889   4.946   7.249   4.450
15014SOL    HW249890   4.953   7.225   4.600
15015SOL     OW49891   4.165   6.721   4.432
15015SOL    HW149892   4.086   6.698   4.482
15015SOL    HW249893   4.137   6.722   4.341
15016SOL     OW49894   4.994   7.384   4.331
15016SOL    HW149895   5.047   7.445   4.281
15016SOL    HW249896   4.923   7.438   4.366
15017SOL     OW49897   4.767   6.163   3.732
15017SOL    HW149898   4.690   6.212   3.706
15017SOL    HW249899   4.840   6.225   3.722
15018SOL     OW49900   3.832   6.154   5.119
15018SOL    HW149901   3.924   6.163   5.095
15018SOL    HW249902   3.818   6.224   5.183
15019SOL     OW49903   4.274   5.804   4.913
15019SOL    HW149904   4.297   5.729   4.968
15019SOL    HW249905   4.181   5.819   4.930
15020SOL     OW49906   4.619   6.042   4.341
15020SOL    HW149907   4.557   6.089   4.286
15020SOL    HW249908   4.646   5.967   4.287
15021SOL     OW49909   4.746   5.646   4.431
15021SOL    HW149910   4.680   5.640   4.362
15021SOL    HW249911   4.725   5.575   4.491
15022SOL     OW49912   5.193   6.765   4.539
15022SOL    HW149913   5.128   6.751   4.471
15022SOL    HW249914   5.271   6.796   4.493
15023SOL     OW49915   5.193   6.194   4.660
15023SOL    HW149916   5.132   6.122   4.676
15023SOL    HW249917   5.252   6.192   4.736
15024SOL     OW49918   5.659   6.335   4.124
15024SOL    HW149919   5.731   6.386   4.086
15024SOL    HW249920   5.625   6.283   4.052
15025SOL     OW49921   4.173   7.044   3.885
15025SOL    HW149922   4.129   7.018   3.965
15025SOL    HW249923   4.107   7.032   3.816
15026SOL     OW49924   5.399   6.867   4.383
15026SOL    HW149925   5.494   6.870   4.396
15026SOL    HW249926   5.370   6.957   4.394
15027SOL     OW49927   5.140   6.143   3.792
15027SOL    HW149928   5.122   6.146   3.886
15027SOL    HW249929   5.233   6.162   3.784
15028SOL     OW49930   4.240   5.831   4.037
15028SOL    HW149931   4.280   5.779   3.968
15028SOL    HW249932   4.216   5.913   3.995
15029SOL     OW49933   5.455   6.813   5.279
15029SOL    HW149934   5.541   6.780   5.255
15029SOL    HW249935   5.469   6.905   5.301
15030SOL     OW49936   4.788   6.905   5.014
15030SOL    HW149937   4.713   6.906   5.074
15030SOL    HW249938   4.859   6.864   5.065
15031SOL     OW49939   5.314   7.200   5.365
15031SOL    HW149940   5.325   7.282   5.318
15031SOL    HW249941   5.400   7.158   5.358
15032SOL     OW49942   4.847   6.756   4.788
15032SOL    HW149943   4.818   6.807   4.864
15032SOL    HW249944   4.837   6.817   4.714
15033SOL     OW49945   5.271   6.678   4.796
15033SOL    HW149946   5.298   6.756   4.845
15033SOL    HW249947   5.254   6.709   4.708
15034SOL     OW49948   4.660   5.620   5.041
15034SOL    HW149949   4.691   5.628   4.950
15034SOL    HW249950   4.719   5.677   5.090
15035SOL     OW49951   4.667   6.744   5.460
15035SOL    HW149952   4.581   6.730   5.501
15035SOL    HW249953   4.679   6.669   5.402
15036SOL     OW49954   4.450   6.614   4.120
15036SOL    HW149955   4.419   6.588   4.206
15036SOL    HW249956   4.534   6.568   4.109
15037SOL     OW49957   4.180   6.412   4.976
15037SOL    HW149958   4.242   6.423   5.048
15037SOL    HW249959   4.144   6.325   4.987
15038SOL     OW49960   4.983   5.918   5.032
15038SOL    HW149961   5.003   6.000   5.077
15038SOL    HW249962   4.896   5.932   4.994
15039SOL     OW49963   3.780   7.167   5.070
15039SOL    HW149964   3.712   7.216   5.024
15039SOL    HW249965   3.858   7.222   5.064
15040SOL     OW49966   4.080   6.714   4.175
15040SOL    HW149967   4.051   6.797   4.137
15040SOL    HW249968   4.061   6.648   4.108
15041SOL     OW49969   4.245   6.083   4.602
15041SOL    HW149970   4.258   6.137   4.524
15041SOL    HW249971   4.312   6.113   4.664
15042SOL     OW49972   4.958   6.949   4.126
15042SOL    HW149973   5.015   7.023   4.150
15042SOL    HW249974   4.871   6.975   4.158
15043SOL     OW49975   5.028   7.053   4.911
15043SOL    HW149976   5.084   7.059   4.989
15043SOL    HW249977   4.946   7.016   4.944
15044SOL     OW49978   5.348   6.211   4.238
15044SOL    HW149979   5.279   6.266   4.277
15044SOL    HW249980   5.416   6.273   4.212
15045SOL     OW49981   4.089   7.124   5.017
15045SOL    HW149982   4.081   7.069   4.939
15045SOL    HW249983   4.183   7.131   5.032
15046SOL     OW49984   4.188   6.339   5.353
15046SOL    HW149985   4.243   6.384   5.290
15046SOL    HW249986   4.227   6.252   5.362
15047SOL     OW49987   5.329   6.385   5.431
15047SOL    HW149988   5.237   6.411   5.425
15047SOL    HW249989   5.370   6.427   5.355
15048SOL     OW49990   4.687   5.709   5.482
15048SOL    HW149991   4.751   5.779   5.467
15048SOL    HW249992   4.740   5.631   5.497
15049SOL     OW49993   4.201   5.622   5.500
15049SOL    HW149994   4.154   5.579   5.429
15049SOL    HW249995   4.146   5.696   5.524
15050SOL     OW49996   4.362   6.462   4.773
15050SOL    HW149997   4.391   6.552   4.787
15050SOL    HW249998   4.289   6.451   4.835
15051SOL     OW49999   4.974   6.373   4.718
15051SOL    HW150000   4.992   6.442   4.781
15051SOL    HW250001   5.058   6.327   4.707
15052SOL     OW50002   4.944   6.059   4.026
15052SOL    HW150003   4.907   6.055   3.938
15052SOL    HW250004   4.893   6.126   4.071
15053SOL     OW50005   4.005   5.790   4.961
15053SOL    HW150006   3.965   5.810   5.046
15053SOL    HW250007   4.000   5.695   4.953
15054SOL     OW50008   3.841   6.905   4.994
15054SOL    HW150009   3.845   6.854   5.074
15054SOL    HW250010   3.821   6.994   5.023
15055SOL     OW50011   4.439   6.195   4.766
15055SOL    HW150012   4.512   6.187   4.704
15055SOL    HW250013   4.413   6.286   4.760
15056SOL     OW50014   5.485   6.520   5.618
15056SOL    HW150015   5.429   6.478   5.552
15056SOL    HW250016   5.423   6.563   5.677
15057SOL     OW50017   4.040   5.635   4.369
15057SOL    HW150018   4.003   5.722   4.385
15057SOL    HW250019   4.031   5.589   4.453
15058SOL     OW50020   5.283   5.974   4.120
15058SOL    HW150021   5.359   5.918   4.133
15058SOL    HW250022   5.313   6.062   4.146
15059SOL     OW50023   4.714   7.219   5.470
15059SOL    HW150024   4.627   7.258   5.476
15059SOL    HW250025   4.764   7.280   5.415
15060SOL     OW50026   5.554   7.070   5.311
15060SOL    HW150027   5.581   7.111   5.229
15060SOL    HW250028   5.630   7.080   5.369
15061SOL     OW50029   4.074   6.487   5.557
15061SOL    HW150030   4.149   6.501   5.615
15061SOL    HW250031   4.108   6.433   5.486
15062SOL     OW50032   5.175   5.773   3.725
15062SOL    HW150033   5.145   5.710   3.791
15062SOL    HW250034   5.237   5.829   3.772
15063SOL     OW50035   4.969   6.343   3.693
15063SOL    HW150036   5.042   6.291   3.725
15063SOL    HW250037   5.007   6.397   3.623
15064SOL     OW50038   4.803   6.941   4.581
15064SOL    HW150039   4.810   6.879   4.509
15064SOL    HW250040   4.846   7.021   4.549
15065SOL     OW50041   4.035   6.395   4.676
15065SOL    HW150042   4.128   6.394   4.657
15065SOL    HW250043   4.014   6.305   4.702
15066SOL     OW50044   4.009   6.112   4.740
15066SOL    HW150045   3.958   6.032   4.727
15066SOL    HW250046   4.087   6.100   4.685
15067SOL     OW50047   4.859   5.918   5.422
15067SOL    HW150048   4.812   5.977   5.481
15067SOL    HW250049   4.945   5.959   5.412
15068SOL     OW50050   4.858   5.734   5.207
15068SOL    HW150051   4.850   5.796   5.280
15068SOL    HW250052   4.914   5.779   5.144
15069SOL     OW50053   3.745   6.879   3.915
15069SOL    HW150054   3.661   6.896   3.872
15069SOL    HW250055   3.732   6.796   3.960
15070SOL     OW50056   3.827   7.325   4.691
15070SOL    HW150057   3.790   7.270   4.623
15070SOL    HW250058   3.909   7.357   4.654
15071SOL     OW50059   4.216   7.154   4.613
15071SOL    HW150060   4.283   7.219   4.634
15071SOL    HW250061   4.260   7.092   4.555
15072SOL     OW50062   4.689   6.327   4.879
15072SOL    HW150063   4.743   6.338   4.957
15072SOL    HW250064   4.602   6.307   4.912
15073SOL     OW50065   3.727   6.153   4.866
15073SOL    HW150066   3.801   6.159   4.806
15073SOL    HW250067   3.766   6.160   4.953
15074SOL     OW50068   3.896   6.151   5.471
15074SOL    HW150069   3.957   6.125   5.402
15074SOL    HW250070   3.847   6.224   5.433
15075SOL     OW50071   5.086   6.498   5.363
15075SOL    HW150072   5.113   6.589   5.358
15075SOL    HW250073   5.085   6.468   5.272
15076SOL     OW50074   4.520   6.161   4.104
15076SOL    HW150075   4.536   6.104   4.029
15076SOL    HW250076   4.442   6.212   4.079
15077SOL     OW50077   5.374   6.190   4.868
15077SOL    HW150078   5.361   6.155   4.955
15077SOL    HW250079   5.468   6.181   4.852
15078SOL     OW50080   3.941   7.130   5.480
15078SOL    HW150081   3.891   7.159   5.557
15078SOL    HW250082   3.965   7.040   5.499
15079SOL     OW50083   4.462   6.001   4.961
15079SOL    HW150084   4.394   5.936   4.944
15079SOL    HW250085   4.446   6.070   4.896
15080SOL     OW50086   4.712   7.215   5.137
15080SOL    HW150087   4.672   7.190   5.054
15080SOL    HW250088   4.707   7.311   5.137
15081SOL     OW50089   4.174   6.062   3.903
15081SOL    HW150090   4.230   6.136   3.927
15081SOL    HW250091   4.086   6.100   3.897
15082SOL     OW50092   3.877   6.740   5.220
15082SOL    HW150093   3.875   6.702   5.307
15082SOL    HW250094   3.901   6.667   5.162
15083SOL     OW50095   5.032   6.583   4.894
15083SOL    HW150096   5.115   6.619   4.861
15083SOL    HW250097   4.965   6.642   4.860
15084SOL     OW50098   5.031   6.448   4.017
15084SOL    HW150099   4.988   6.451   4.103
15084SOL    HW250100   4.964   6.477   3.956
15085SOL     OW50101   5.477   7.315   4.824
15085SOL    HW150102   5.550   7.364   4.787
15085SOL    HW250103   5.496   7.223   4.804
15086SOL     OW50104   4.998   7.293   4.760
15086SOL    HW150105   5.082   7.336   4.743
15086SOL    HW250106   5.020   7.222   4.821
15087SOL     OW50107   3.842   6.857   4.725
15087SOL    HW150108   3.855   6.858   4.820
15087SOL    HW250109   3.757   6.898   4.711
15088SOL     OW50110   4.437   7.280   5.470
15088SOL    HW150111   4.435   7.363   5.518
15088SOL    HW250112   4.394   7.301   5.386
15089SOL     OW50113   5.503   5.820   4.188
15089SOL    HW150114   5.558   5.792   4.116
15089SOL    HW250115   5.463   5.739   4.220
15090SOL     OW50116   5.114   7.163   4.213
15090SOL    HW150117   5.184   7.197   4.157
15090SOL    HW250118   5.066   7.241   4.242
15091SOL     OW50119   3.780   7.449   5.599
15091SOL    HW150120   3.770   7.357   5.624
15091SOL    HW250121   3.707   7.494   5.642
15092SOL     OW50122   4.968   6.505   4.326
15092SOL    HW150123   5.040   6.450   4.358
15092SOL    HW250124   5.010   6.585   4.297
15093SOL     OW50125   4.543   6.906   5.159
15093SOL    HW150126   4.514   6.934   5.246
15093SOL    HW250127   4.496   6.963   5.098
15094SOL     OW50128   4.419   7.174   3.846
15094SOL    HW150129   4.395   7.253   3.798
15094SOL    HW250130   4.335   7.131   3.864
15095SOL     OW50131   5.323   7.314   5.061
15095SOL    HW150132   5.379   7.329   4.985
15095SOL    HW250133   5.320   7.398   5.105
15096SOL     OW50134   5.558   5.728   4.787
15096SOL    HW150135   5.601   5.652   4.748
15096SOL    HW250136   5.488   5.750   4.726
15097SOL     OW50137   3.950   5.880   4.453
15097SOL    HW150138   3.872   5.921   4.417
15097SOL    HW250139   3.934   5.874   4.547
15098SOL     OW50140   4.828   7.203   3.697
15098SOL    HW150141   4.831   7.120   3.744
15098SOL    HW250142   4.919   7.224   3.679
15099SOL     OW50143   4.541   6.637   5.091
15099SOL    HW150144   4.538   6.646   4.996
15099SOL    HW250145   4.536   6.727   5.124
15100SOL     OW50146   4.690   6.485   4.083
15100SOL    HW150147   4.728   6.512   3.999
15100SOL    HW250148   4.727   6.398   4.099
15101SOL     OW50149   5.256   7.227   3.795
15101SOL    HW150150   5.206   7.306   3.816
15101SOL    HW250151   5.277   7.236   3.702
15102SOL     OW50152   4.092   6.929   5.228
15102SOL    HW150153   4.078   7.000   5.166
15102SOL    HW250154   4.019   6.869   5.214
15103SOL     OW50155   5.339   6.890   4.960
15103SOL    HW150156   5.427   6.888   4.998
15103SOL    HW250157   5.289   6.946   5.019
15104SOL     OW50158   4.783   6.691   4.454
15104SOL    HW150159   4.742   6.636   4.520
15104SOL    HW250160   4.843   6.632   4.407
15105SOL     OW50161   4.758   5.846   4.650
15105SOL    HW150162   4.745   5.812   4.562
15105SOL    HW250163   4.766   5.769   4.705
15106SOL     OW50164   4.340   7.088   4.215
15106SOL    HW150165   4.374   7.028   4.149
15106SOL    HW250166   4.299   7.158   4.164
15107SOL     OW50167   5.497   5.982   5.088
15107SOL    HW150168   5.565   6.043   5.116
15107SOL    HW250169   5.518   5.962   4.997
15108SOL     OW50170   3.972   6.949   4.073
15108SOL    HW150171   3.892   6.937   4.020
15108SOL    HW250172   3.944   7.004   4.146
15109SOL     OW50173   3.852   6.630   5.473
15109SOL    HW150174   3.770   6.604   5.515
15109SOL    HW250175   3.918   6.573   5.512
15110SOL     OW50176   4.388   5.789   5.220
15110SOL    HW150177   4.442   5.847   5.166
15110SOL    HW250178   4.406   5.817   5.310
15111SOL     OW50179   3.807   5.903   3.711
15111SOL    HW150180   3.728   5.881   3.661
15111SOL    HW250181   3.816   5.998   3.700
15112SOL     OW50182   5.119   6.411   5.100
15112SOL    HW150183   5.066   6.461   5.038
15112SOL    HW250184   5.209   6.427   5.073
15113SOL     OW50185   3.752   5.747   4.021
15113SOL    HW150186   3.719   5.818   3.967
15113SOL    HW250187   3.833   5.719   3.978
15114SOL     OW50188   4.877   6.940   3.849
15114SOL    HW150189   4.782   6.936   3.854
15114SOL    HW250190   4.906   6.946   3.940
15115SOL     OW50191   4.377   6.423   5.165
15115SOL    HW150192   4.427   6.504   5.149
15115SOL    HW250193   4.443   6.354   5.162
15116SOL     OW50194   5.246   7.394   4.692
15116SOL    HW150195   5.268   7.479   4.655
15116SOL    HW250196   5.321   7.370   4.746
15117SOL     OW50197   4.461   6.134   5.397
15117SOL    HW150198   4.505   6.192   5.459
15117SOL    HW250199   4.459   6.049   5.441
15118SOL     OW50200   5.185   6.757   5.338
15118SOL    HW150201   5.172   6.779   5.430
15118SOL    HW250202   5.276   6.782   5.321
15119SOL     OW50203   4.069   7.336   5.338
15119SOL    HW150204   3.998   7.399   5.326
15119SOL    HW250205   4.029   7.264   5.386
15120SOL     OW50206   5.353   6.468   4.961
15120SOL    HW150207   5.375   6.392   4.907
15120SOL    HW250208   5.338   6.539   4.898
15121SOL     OW50209   4.311   6.306   4.433
15121SOL    HW150210   4.343   6.396   4.423
15121SOL    HW250211   4.250   6.295   4.360
15122SOL     OW50212   5.542   5.980   5.409
15122SOL    HW150213   5.633   6.011   5.409
15122SOL    HW250214   5.494   6.045   5.460
15123SOL     OW50215   5.415   6.534   5.224
15123SOL    HW150216   5.423   6.629   5.235
15123SOL    HW250217   5.411   6.521   5.129
15124SOL     OW50218   4.596   6.958   3.842
15124SOL    HW150219   4.557   6.930   3.925
15124SOL    HW250220   4.551   7.040   3.821
15125SOL     OW50221   4.391   7.354   4.656
15125SOL    HW150222   4.364   7.446   4.657
15125SOL    HW250223   4.486   7.357   4.651
15126SOL     OW50224   4.621   6.531   4.640
15126SOL    HW150225   4.529   6.515   4.620
15126SOL    HW250226   4.619   6.595   4.711
15127SOL     OW50227   4.825   6.526   3.843
15127SOL    HW150228   4.781   6.590   3.788
15127SOL    HW250229   4.866   6.465   3.781
15128SOL     OW50230   5.594   7.180   4.504
15128SOL    HW150231   5.535   7.231   4.448
15128SOL    HW250232   5.536   7.139   4.567
15129SOL     OW50233   3.967   6.864   5.579
15129SOL    HW150234   3.932   6.789   5.531
15129SOL    HW250235   3.902   6.880   5.648
15130SOL     OW50236   3.824   6.867   4.429
15130SOL    HW150237   3.852   6.889   4.518
15130SOL    HW250238   3.855   6.939   4.375
15131SOL     OW50239   4.466   7.010   5.406
15131SOL    HW150240   4.382   6.969   5.425
15131SOL    HW250241   4.450   7.103   5.417
15132SOL     OW50242   5.495   5.679   5.063
15132SOL    HW150243   5.574   5.633   5.089
15132SOL    HW250244   5.506   5.696   4.970
15133SOL     OW50245   4.152   5.986   4.273
15133SOL    HW150246   4.165   5.922   4.203
15133SOL    HW250247   4.088   5.945   4.331
15134SOL     OW50248   5.454   7.035   4.730
15134SOL    HW150249   5.364   7.042   4.700
15134SOL    HW250250   5.447   7.002   4.820
15135SOL     OW50251   4.086   6.158   5.009
15135SOL    HW150252   4.120   6.084   5.059
15135SOL    HW250253   4.069   6.123   4.922
15136SOL     OW50254   4.545   7.204   4.362
15136SOL    HW150255   4.549   7.289   4.318
15136SOL    HW250256   4.468   7.162   4.325
15137SOL     OW50257   5.138   5.824   4.818
15137SOL    HW150258   5.157   5.732   4.832
15137SOL    HW250259   5.094   5.852   4.899
15138SOL     OW50260   4.771   5.604   4.785
15138SOL    HW150261   4.731   5.541   4.726
15138SOL    HW250262   4.853   5.564   4.812
15139SOL     OW50263   4.492   6.889   4.085
15139SOL    HW150264   4.475   6.796   4.100
15139SOL    HW250265   4.568   6.909   4.140
15140SOL     OW50266   4.366   7.113   5.056
15140SOL    HW150267   4.358   7.186   5.117
15140SOL    HW250268   4.439   7.137   4.999
15141SOL     OW50269   5.099   5.599   3.924
15141SOL    HW150270   5.145   5.522   3.891
15141SOL    HW250271   5.008   5.570   3.935
15142SOL     OW50272   5.046   6.065   4.370
15142SOL    HW150273   5.068   6.158   4.379
15142SOL    HW250274   5.030   6.036   4.460
15143SOL     OW50275   5.344   5.798   4.627
15143SOL    HW150276   5.273   5.826   4.685
15143SOL    HW250277   5.351   5.869   4.563
15144SOL     OW50278   3.747   6.637   4.059
15144SOL    HW150279   3.840   6.633   4.038
15144SOL    HW250280   3.719   6.545   4.061
15145SOL     OW50281   4.613   7.248   4.039
15145SOL    HW150282   4.543   7.230   3.976
15145SOL    HW250283   4.578   7.318   4.094
15146SOL     OW50284   3.929   6.195   5.744
15146SOL    HW150285   3.841   6.192   5.781
15146SOL    HW250286   3.916   6.197   5.649
15147SOL     OW50287   3.921   5.858   6.574
15147SOL    HW150288   3.960   5.833   6.657
15147SOL    HW250289   3.831   5.826   6.579
15148SOL     OW50290   3.696   5.963   6.224
15148SOL    HW150291   3.618   5.993   6.271
15148SOL    HW250292   3.663   5.896   6.164
15149SOL     OW50293   4.273   6.854   6.742
15149SOL    HW150294   4.206   6.884   6.681
15149SOL    HW250295   4.290   6.929   6.798
15150SOL     OW50296   5.238   7.044   6.277
15150SOL    HW150297   5.227   7.048   6.372
15150SOL    HW250298   5.153   7.071   6.242
15151SOL     OW50299   4.864   6.288   6.277
15151SOL    HW150300   4.912   6.368   6.255
15151SOL    HW250301   4.820   6.308   6.360
15152SOL     OW50302   5.491   6.195   5.836
15152SOL    HW150303   5.483   6.188   5.741
15152SOL    HW250304   5.437   6.123   5.869
15153SOL     OW50305   4.485   6.716   6.643
15153SOL    HW150306   4.408   6.760   6.680
15153SOL    HW250307   4.533   6.786   6.598
15154SOL     OW50308   4.604   6.343   7.373
15154SOL    HW150309   4.627   6.399   7.447
15154SOL    HW250310   4.614   6.399   7.296
15155SOL     OW50311   4.386   6.563   6.261
15155SOL    HW150312   4.463   6.564   6.317
15155SOL    HW250313   4.335   6.640   6.287
15156SOL     OW50314   4.459   6.709   7.445
15156SOL    HW150315   4.494   6.760   7.519
15156SOL    HW250316   4.393   6.766   7.406
15157SOL     OW50317   4.089   6.937   6.532
15157SOL    HW150318   4.007   6.966   6.572
15157SOL    HW250319   4.139   7.017   6.517
15158SOL     OW50320   5.182   7.055   6.958
15158SOL    HW150321   5.230   7.138   6.961
15158SOL    HW250322   5.106   7.069   7.014
15159SOL     OW50323   4.183   5.941   7.046
15159SOL    HW150324   4.232   5.859   7.053
15159SOL    HW250325   4.093   5.917   7.069
15160SOL     OW50326   5.308   6.014   6.337
15160SOL    HW150327   5.249   6.030   6.262
15160SOL    HW250328   5.287   6.084   6.399
15161SOL     OW50329   3.968   7.315   6.040
15161SOL    HW150330   3.985   7.386   6.101
15161SOL    HW250331   4.051   7.300   5.995
15162SOL     OW50332   4.838   6.945   7.307
15162SOL    HW150333   4.882   6.940   7.392
15162SOL    HW250334   4.792   6.862   7.299
15163SOL     OW50335   3.858   7.086   6.159
15163SOL    HW150336   3.892   7.168   6.122
15163SOL    HW250337   3.820   7.112   6.243
15164SOL     OW50338   4.359   7.315   7.039
15164SOL    HW150339   4.272   7.353   7.053
15164SOL    HW250340   4.417   7.391   7.032
15165SOL     OW50341   4.282   6.550   5.750
15165SOL    HW150342   4.332   6.599   5.685
15165SOL    HW250343   4.320   6.575   5.834
15166SOL     OW50344   5.326   5.736   7.058
15166SOL    HW150345   5.387   5.800   7.022
15166SOL    HW250346   5.300   5.773   7.143
15167SOL     OW50347   3.850   6.208   6.168
15167SOL    HW150348   3.801   6.128   6.181
15167SOL    HW250349   3.848   6.252   6.253
15168SOL     OW50350   5.571   7.367   5.890
15168SOL    HW150351   5.648   7.343   5.941
15168SOL    HW250352   5.581   7.460   5.874
15169SOL     OW50353   3.774   7.179   5.692
15169SOL    HW150354   3.709   7.109   5.698
15169SOL    HW250355   3.761   7.230   5.771
15170SOL     OW50356   5.476   6.423   6.083
15170SOL    HW150357   5.515   6.428   6.170
15170SOL    HW250358   5.424   6.503   6.075
15171SOL     OW50359   5.387   6.684   6.026
15171SOL    HW150360   5.478   6.681   5.998
15171SOL    HW250361   5.388   6.735   6.107
15172SOL     OW50362   4.385   7.010   6.275
15172SOL    HW150363   4.341   6.927   6.291
15172SOL    HW250364   4.368   7.029   6.183
15173SOL     OW50365   5.084   6.749   7.033
15173SOL    HW150366   5.061   6.710   6.948
15173SOL    HW250367   5.131   6.829   7.010
15174SOL     OW50368   4.561   5.605   6.102
15174SOL    HW150369   4.606   5.683   6.071
15174SOL    HW250370   4.469   5.631   6.109
15175SOL     OW50371   3.863   6.514   6.926
15175SOL    HW150372   3.948   6.506   6.882
15175SOL    HW250373   3.800   6.525   6.855
15176SOL     OW50374   5.271   6.606   5.785
15176SOL    HW150375   5.206   6.542   5.815
15176SOL    HW250376   5.307   6.642   5.866
15177SOL     OW50377   5.014   7.439   7.206
15177SOL    HW150378   4.975   7.483   7.130
15177SOL    HW250379   5.080   7.501   7.237
15178SOL     OW50380   4.104   5.837   7.416
15178SOL    HW150381   4.139   5.913   7.463
15178SOL    HW250382   4.010   5.842   7.430
15179SOL     OW50383   5.206   7.000   6.547
15179SOL    HW150384   5.139   7.024   6.611
15179SOL    HW250385   5.189   6.908   6.527
15180SOL     OW50386   5.422   7.220   6.168
15180SOL    HW150387   5.394   7.250   6.082
15180SOL    HW250388   5.349   7.167   6.200
15181SOL     OW50389   4.306   6.278   5.865
15181SOL    HW150390   4.303   6.365   5.825
15181SOL    HW250391   4.241   6.281   5.935
15182SOL     OW50392   5.013   5.974   6.532
15182SOL    HW150393   4.926   5.935   6.539
15182SOL    HW250394   5.066   5.925   6.595
15183SOL     OW50395   5.318   7.257   5.898
15183SOL    HW150396   5.400   7.306   5.891
15183SOL    HW250397   5.292   7.240   5.807
15184SOL     OW50398   5.124   6.053   7.255
15184SOL    HW150399   5.122   6.093   7.342
15184SOL    HW250400   5.177   5.974   7.266
15185SOL     OW50401   4.648   6.487   7.138
15185SOL    HW150402   4.705   6.418   7.103
15185SOL    HW250403   4.617   6.534   7.061
15186SOL     OW50404   4.716   5.977   6.795
15186SOL    HW150405   4.629   6.013   6.811
15186SOL    HW250406   4.713   5.950   6.703
15187SOL     OW50407   4.778   6.271   6.010
15187SOL    HW150408   4.802   6.274   6.103
15187SOL    HW250409   4.692   6.231   6.008
15188SOL     OW50410   3.837   6.348   6.408
15188SOL    HW150411   3.911   6.385   6.456
15188SOL    HW250412   3.764   6.407   6.427
15189SOL     OW50413   3.842   7.480   7.192
15189SOL    HW150414   3.871   7.498   7.281
15189SOL    HW250415   3.836   7.567   7.151
15190SOL     OW50416   4.587   5.935   5.789
15190SOL    HW150417   4.638   5.981   5.723
15190SOL    HW250418   4.533   5.874   5.739
15191SOL     OW50419   5.448   6.207   7.380
15191SOL    HW150420   5.410   6.292   7.359
15191SOL    HW250421   5.414   6.148   7.313
15192SOL     OW50422   5.114   6.729   6.100
15192SOL    HW150423   5.201   6.728   6.060
15192SOL    HW250424   5.068   6.800   6.054
15193SOL     OW50425   4.250   5.788   6.502
15193SOL    HW150426   4.268   5.808   6.594
15193SOL    HW250427   4.246   5.873   6.459
15194SOL     OW50428   4.084   7.394   6.466
15194SOL    HW150429   4.141   7.317   6.478
15194SOL    HW250430   4.140   7.468   6.489
15195SOL     OW50431   5.423   6.574   6.395
15195SOL    HW150432   5.419   6.658   6.349
15195SOL    HW250433   5.399   6.594   6.485
15196SOL     OW50434   4.933   7.080   7.081
15196SOL    HW150435   4.914   7.041   7.167
15196SOL    HW250436   4.885   7.162   7.081
15197SOL     OW50437   4.022   6.550   5.868
15197SOL    HW150438   4.104   6.565   5.820
15197SOL    HW250439   3.990   6.466   5.835
15198SOL     OW50440   5.232   6.381   6.316
15198SOL    HW150441   5.219   6.324   6.392
15198SOL    HW250442   5.297   6.445   6.345
15199SOL     OW50443   4.249   6.848   7.329
15199SOL    HW150444   4.192   6.855   7.252
15199SOL    HW250445   4.195   6.876   7.402
15200SOL     OW50446   4.897   7.303   5.866
15200SOL    HW150447   4.803   7.290   5.876
15200SOL    HW250448   4.919   7.264   5.781
15201SOL     OW50449   3.938   5.826   7.081
15201SOL    HW150450   3.861   5.883   7.074
15201SOL    HW250451   3.907   5.751   7.133
15202SOL     OW50452   5.352   6.943   5.696
15202SOL    HW150453   5.324   7.033   5.684
15202SOL    HW250454   5.283   6.890   5.655
15203SOL     OW50455   4.230   7.315   5.924
15203SOL    HW150456   4.253   7.392   5.976
15203SOL    HW250457   4.284   7.324   5.845
15204SOL     OW50458   5.127   5.694   6.042
15204SOL    HW150459   5.136   5.675   5.948
15204SOL    HW250460   5.211   5.669   6.080
15205SOL     OW50461   3.980   7.326   6.823
15205SOL    HW150462   4.013   7.413   6.846
15205SOL    HW250463   3.938   7.338   6.739
15206SOL     OW50464   4.696   7.201   6.557
15206SOL    HW150465   4.790   7.209   6.544
15206SOL    HW250466   4.668   7.289   6.584
15207SOL     OW50467   4.120   6.237   6.069
15207SOL    HW150468   4.136   6.145   6.088
15207SOL    HW250469   4.026   6.249   6.085
15208SOL     OW50470   5.268   5.817   7.328
15208SOL    HW150471   5.265   5.850   7.417
15208SOL    HW250472   5.234   5.728   7.333
15209SOL     OW50473   4.380   5.693   5.696
15209SOL    HW150474   4.420   5.611   5.727
15209SOL    HW250475   4.313   5.664   5.634
15210SOL     OW50476   4.480   5.864   7.345
15210SOL    HW150477   4.568   5.827   7.356
15210SOL    HW250478   4.433   5.836   7.423
15211SOL     OW50479   4.621   7.127   6.809
15211SOL    HW150480   4.642   7.157   6.721
15211SOL    HW250481   4.689   7.062   6.829
15212SOL     OW50482   5.039   6.181   7.024
15212SOL    HW150483   5.082   6.150   7.103
15212SOL    HW250484   5.079   6.266   7.006
15213SOL     OW50485   4.566   6.946   6.501
15213SOL    HW150486   4.615   7.026   6.520
15213SOL    HW250487   4.517   6.966   6.422
15214SOL     OW50488   4.647   6.088   6.478
15214SOL    HW150489   4.620   6.081   6.386
15214SOL    HW250490   4.687   6.003   6.497
15215SOL     OW50491   4.299   5.684   6.108
15215SOL    HW150492   4.260   5.727   6.185
15215SOL    HW250493   4.282   5.745   6.036
15216SOL     OW50494   5.137   6.786   5.608
15216SOL    HW150495   5.167   6.722   5.672
15216SOL    HW250496   5.058   6.824   5.645
15217SOL     OW50497   3.988   5.631   5.775
15217SOL    HW150498   4.031   5.705   5.732
15217SOL    HW250499   4.058   5.590   5.827
15218SOL     OW50500   4.686   5.835   6.028
15218SOL    HW150501   4.654   5.872   5.946
15218SOL    HW250502   4.779   5.857   6.031
15219SOL     OW50503   4.774   6.256   7.044
15219SOL    HW150504   4.752   6.190   7.110
15219SOL    HW250505   4.867   6.242   7.025
15220SOL     OW50506   4.958   7.127   6.300
15220SOL    HW150507   4.972   7.198   6.239
15220SOL    HW250508   4.963   7.168   6.387
15221SOL     OW50509   4.216   6.787   6.310
15221SOL    HW150510   4.162   6.832   6.376
15221SOL    HW250511   4.157   6.774   6.236
15222SOL     OW50512   4.943   7.410   6.214
15222SOL    HW150513   5.011   7.437   6.152
15222SOL    HW250514   4.961   7.461   6.293
15223SOL     OW50515   4.742   6.087   5.611
15223SOL    HW150516   4.711   6.173   5.584
15223SOL    HW250517   4.804   6.105   5.682
15224SOL     OW50518   3.839   6.228   6.941
15224SOL    HW150519   3.933   6.216   6.935
15224SOL    HW250520   3.828   6.320   6.966
15225SOL     OW50521   4.295   5.802   6.776
15225SOL    HW150522   4.328   5.729   6.829
15225SOL    HW250523   4.201   5.803   6.794
15226SOL     OW50524   4.591   6.025   6.216
15226SOL    HW150525   4.550   6.084   6.153
15226SOL    HW250526   4.625   5.953   6.163
15227SOL     OW50527   4.747   5.648   6.327
15227SOL    HW150528   4.691   5.653   6.250
15227SOL    HW250529   4.714   5.574   6.377
15228SOL     OW50530   5.142   6.751   6.444
15228SOL    HW150531   5.051   6.781   6.447
15228SOL    HW250532   5.164   6.752   6.350
15229SOL     OW50533   5.185   6.196   6.520
15229SOL    HW150534   5.122   6.125   6.534
15229SOL    HW250535   5.243   6.191   6.595
15230SOL     OW50536   4.186   6.999   5.769
15230SOL    HW150537   4.110   6.992   5.826
15230SOL    HW250538   4.155   6.971   5.683
15231SOL     OW50539   5.405   6.820   6.260
15231SOL    HW150540   5.497   6.845   6.253
15231SOL    HW250541   5.358   6.902   6.267
15232SOL     OW50542   5.114   6.170   5.663
15232SOL    HW150543   5.046   6.140   5.723
15232SOL    HW250544   5.188   6.191   5.719
15233SOL     OW50545   4.238   5.835   5.890
15233SOL    HW150546   4.288   5.790   5.822
15233SOL    HW250547   4.212   5.918   5.850
15234SOL     OW50548   5.512   6.920   7.275
15234SOL    HW150549   5.553   6.845   7.231
15234SOL    HW250550   5.563   6.996   7.244
15235SOL     OW50551   4.796   6.931   6.894
15235SOL    HW150552   4.717   6.899   6.938
15235SOL    HW250553   4.848   6.969   6.964
15236SOL     OW50554   5.357   7.170   7.216
15236SOL    HW150555   5.321   7.222   7.144
15236SOL    HW250556   5.452   7.173   7.202
15237SOL     OW50557   4.818   6.760   6.673
15237SOL    HW150558   4.802   6.827   6.740
15237SOL    HW250559   4.839   6.809   6.594
15238SOL     OW50560   5.314   6.651   6.638
15238SOL    HW150561   5.322   6.721   6.703
15238SOL    HW250562   5.242   6.679   6.582
15239SOL     OW50563   4.654   5.645   6.964
15239SOL    HW150564   4.674   5.636   6.870
15239SOL    HW250565   4.728   5.693   7.000
15240SOL     OW50566   4.705   6.698   7.318
15240SOL    HW150567   4.617   6.712   7.355
15240SOL    HW250568   4.692   6.633   7.249
15241SOL     OW50569   4.413   6.610   5.985
15241SOL    HW150570   4.400   6.591   6.078
15241SOL    HW250571   4.492   6.562   5.961
15242SOL     OW50572   4.122   6.445   6.824
15242SOL    HW150573   4.173   6.483   6.895
15242SOL    HW250574   4.122   6.351   6.841
15243SOL     OW50575   4.977   5.959   6.875
15243SOL    HW150576   5.002   6.040   6.920
15243SOL    HW250577   4.887   5.974   6.846
15244SOL     OW50578   3.784   7.216   6.983
15244SOL    HW150579   3.717   7.226   6.916
15244SOL    HW250580   3.863   7.254   6.945
15245SOL     OW50581   4.049   6.737   6.084
15245SOL    HW150582   4.033   6.813   6.029
15245SOL    HW250583   4.049   6.663   6.023
15246SOL     OW50584   4.261   6.066   6.447
15246SOL    HW150585   4.261   6.124   6.371
15246SOL    HW250586   4.321   6.108   6.509
15247SOL     OW50587   4.968   6.937   5.982
15247SOL    HW150588   5.017   7.018   5.998
15247SOL    HW250589   4.898   6.939   6.047
15248SOL     OW50590   5.011   7.043   6.742
15248SOL    HW150591   5.075   7.055   6.813
15248SOL    HW250592   4.935   7.003   6.785
15249SOL     OW50593   5.291   6.206   6.098
15249SOL    HW150594   5.243   6.253   6.166
15249SOL    HW250595   5.360   6.266   6.071
15250SOL     OW50596   4.090   7.080   6.911
15250SOL    HW150597   4.054   7.164   6.883
15250SOL    HW250598   4.185   7.091   6.904
15251SOL     OW50599   4.220   6.349   7.228
15251SOL    HW150600   4.243   6.414   7.161
15251SOL    HW250601   4.303   6.317   7.260
15252SOL     OW50602   5.328   6.428   7.280
15252SOL    HW150603   5.244   6.471   7.267
15252SOL    HW250604   5.380   6.452   7.203
15253SOL     OW50605   4.726   5.750   7.365
15253SOL    HW150606   4.782   5.821   7.335
15253SOL    HW250607   4.773   5.670   7.341
15254SOL     OW50608   4.238   5.617   7.328
15254SOL    HW150609   4.172   5.569   7.277
15254SOL    HW250610   4.193   5.697   7.355
15255SOL     OW50611   4.338   6.470   6.631
15255SOL    HW150612   4.386   6.553   6.626
15255SOL    HW250613   4.275   6.483   6.702
15256SOL     OW50614   5.021   6.410   6.608
15256SOL    HW150615   4.934   6.390   6.574
15256SOL    HW250616   5.077   6.341   6.571
15257SOL     OW50617   4.910   6.104   5.836
15257SOL    HW150618   4.929   6.031   5.894
15257SOL    HW250619   4.871   6.170   5.892
15258SOL     OW50620   4.027   5.768   6.816
15258SOL    HW150621   3.976   5.785   6.895
15258SOL    HW250622   4.005   5.677   6.793
15259SOL     OW50623   3.805   6.935   6.897
15259SOL    HW150624   3.822   6.878   6.972
15259SOL    HW250625   3.819   7.023   6.930
15260SOL     OW50626   4.424   6.204   6.621
15260SOL    HW150627   4.504   6.197   6.568
15260SOL    HW250628   4.401   6.297   6.617
15261SOL     OW50629   5.480   6.550   7.475
15261SOL    HW150630   5.426   6.509   7.408
15261SOL    HW250631   5.418   6.591   7.535
15262SOL     OW50632   4.023   5.593   6.314
15262SOL    HW150633   3.992   5.681   6.295
15262SOL    HW250634   4.004   5.543   6.235
15263SOL     OW50635   5.320   5.993   5.921
15263SOL    HW150636   5.366   5.926   5.973
15263SOL    HW250637   5.291   6.057   5.986
15264SOL     OW50638   4.755   6.334   6.538
15264SOL    HW150639   4.735   6.351   6.630
15264SOL    HW250640   4.721   6.246   6.523
15265SOL     OW50641   4.687   7.179   7.311
15265SOL    HW150642   4.694   7.205   7.219
15265SOL    HW250643   4.738   7.098   7.317
15266SOL     OW50644   5.633   7.154   7.164
15266SOL    HW150645   5.646   7.144   7.070
15266SOL    HW250646   5.649   7.247   7.181
15267SOL     OW50647   4.065   6.442   7.445
15267SOL    HW150648   4.139   6.477   7.494
15267SOL    HW250649   4.105   6.405   7.366
15268SOL     OW50650   5.272   5.845   5.679
15268SOL    HW150651   5.221   5.773   5.717
15268SOL    HW250652   5.289   5.903   5.753
15269SOL     OW50653   4.982   6.407   5.599
15269SOL    HW150654   5.028   6.324   5.608
15269SOL    HW250655   5.013   6.443   5.516
15270SOL     OW50656   4.900   6.882   6.431
15270SOL    HW150657   4.849   6.830   6.369
15270SOL    HW250658   4.911   6.967   6.388
15271SOL     OW50659   4.029   6.523   6.554
15271SOL    HW150660   4.109   6.510   6.503
15271SOL    HW250661   4.053   6.494   6.642
15272SOL     OW50662   4.051   6.094   6.628
15272SOL    HW150663   3.997   6.020   6.601
15272SOL    HW250664   4.118   6.101   6.559
15273SOL     OW50665   4.855   5.976   7.258
15273SOL    HW150666   4.816   6.027   7.329
15273SOL    HW250667   4.945   6.008   7.252
15274SOL     OW50668   4.875   5.781   7.061
15274SOL    HW150669   4.862   5.848   7.128
15274SOL    HW250670   4.921   5.826   6.990
15275SOL     OW50671   3.760   6.872   5.766
15275SOL    HW150672   3.673   6.899   5.734
15275SOL    HW250673   3.744   6.787   5.807
15276SOL     OW50674   3.836   7.323   6.567
15276SOL    HW150675   3.791   7.287   6.491
15276SOL    HW250676   3.915   7.363   6.531
15277SOL     OW50677   4.253   7.158   6.477
15277SOL    HW150678   4.316   7.225   6.505
15277SOL    HW250679   4.297   7.114   6.404
15278SOL     OW50680   4.684   6.372   6.801
15278SOL    HW150681   4.718   6.328   6.879
15278SOL    HW250682   4.652   6.456   6.833
15279SOL     OW50683   3.712   6.109   6.727
15279SOL    HW150684   3.771   6.114   6.651
15279SOL    HW250685   3.760   6.153   6.797
15280SOL     OW50686   3.792   6.303   7.286
15280SOL    HW150687   3.877   6.259   7.277
15280SOL    HW250688   3.736   6.238   7.329
15281SOL     OW50689   5.082   6.534   7.223
15281SOL    HW150690   5.072   6.628   7.207
15281SOL    HW250691   5.091   6.496   7.136
15282SOL     OW50692   4.533   6.148   5.969
15282SOL    HW150693   4.540   6.077   5.905
15282SOL    HW250694   4.459   6.201   5.939
15283SOL     OW50695   5.361   6.176   6.727
15283SOL    HW150696   5.350   6.141   6.815
15283SOL    HW250697   5.455   6.169   6.709
15284SOL     OW50698   3.920   7.151   7.277
15284SOL    HW150699   3.946   7.210   7.347
15284SOL    HW250700   3.927   7.064   7.316
15285SOL     OW50701   4.433   6.038   6.838
15285SOL    HW150702   4.389   5.961   6.802
15285SOL    HW250703   4.427   6.104   6.768
15286SOL     OW50704   4.705   7.260   7.049
15286SOL    HW150705   4.665   7.229   6.968
15286SOL    HW250706   4.677   7.352   7.055
15287SOL     OW50707   4.166   6.062   5.757
15287SOL    HW150708   4.228   6.130   5.781
15287SOL    HW250709   4.081   6.106   5.758
15288SOL     OW50710   3.844   6.743   7.094
15288SOL    HW150711   3.850   6.711   7.183
15288SOL    HW250712   3.841   6.664   7.040
15289SOL     OW50713   5.005   6.604   6.800
15289SOL    HW150714   5.024   6.540   6.731
15289SOL    HW250715   4.937   6.660   6.763
15290SOL     OW50716   5.069   6.438   5.865
15290SOL    HW150717   5.005   6.428   5.935
15290SOL    HW250718   5.019   6.432   5.785
15291SOL     OW50719   5.512   7.348   6.764
15291SOL    HW150720   5.524   7.435   6.802
15291SOL    HW250721   5.558   7.353   6.680
15292SOL     OW50722   4.968   7.235   6.550
15292SOL    HW150723   5.037   7.301   6.560
15292SOL    HW250724   4.982   7.175   6.623
15293SOL     OW50725   3.804   6.861   6.636
15293SOL    HW150726   3.817   6.881   6.729
15293SOL    HW250727   3.725   6.910   6.612
15294SOL     OW50728   4.406   7.275   7.311
15294SOL    HW150729   4.344   7.348   7.325
15294SOL    HW250730   4.408   7.265   7.216
15295SOL     OW50731   5.473   5.801   6.054
15295SOL    HW150732   5.540   5.773   5.992
15295SOL    HW250733   5.439   5.720   6.091
15296SOL     OW50734   5.087   7.179   6.028
15296SOL    HW150735   5.172   7.206   5.995
15296SOL    HW250736   5.024   7.238   5.985
15297SOL     OW50737   3.930   7.368   7.444
15297SOL    HW150738   3.872   7.321   7.503
15297SOL    HW250739   3.988   7.418   7.503
15298SOL     OW50740   5.007   6.511   6.219
15298SOL    HW150741   5.086   6.471   6.255
15298SOL    HW250742   5.038   6.589   6.172
15299SOL     OW50743   4.541   6.874   7.001
15299SOL    HW150744   4.533   6.901   7.093
15299SOL    HW250745   4.481   6.932   6.954
15300SOL     OW50746   4.421   7.161   5.723
15300SOL    HW150747   4.409   7.206   5.639
15300SOL    HW250748   4.340   7.112   5.736
15301SOL     OW50749   5.318   7.299   6.968
15301SOL    HW150750   5.377   7.309   6.893
15301SOL    HW250751   5.305   7.389   6.999
15302SOL     OW50752   5.563   5.750   6.546
15302SOL    HW150753   5.592   5.663   6.518
15302SOL    HW250754   5.475   5.759   6.510
15303SOL     OW50755   3.944   5.856   6.293
15303SOL    HW150756   3.861   5.896   6.265
15303SOL    HW250757   3.946   5.870   6.387
15304SOL     OW50758   4.951   7.186   5.623
15304SOL    HW150759   4.945   7.092   5.639
15304SOL    HW250760   4.876   7.206   5.567
15305SOL     OW50761   4.548   6.617   6.906
15305SOL    HW150762   4.540   6.637   6.812
15305SOL    HW250763   4.552   6.703   6.948
15306SOL     OW50764   4.632   6.481   5.893
15306SOL    HW150765   4.675   6.512   5.814
15306SOL    HW250766   4.693   6.417   5.930
15307SOL     OW50767   5.234   7.187   5.636
15307SOL    HW150768   5.139   7.204   5.631
15307SOL    HW250769   5.265   7.202   5.547
15308SOL     OW50770   4.101   6.860   7.092
15308SOL    HW150771   4.101   6.935   7.033
15308SOL    HW250772   4.011   6.828   7.092
15309SOL     OW50773   5.335   6.854   6.825
15309SOL    HW150774   5.427   6.868   6.847
15309SOL    HW250775   5.289   6.927   6.867
15310SOL     OW50776   4.790   6.694   6.266
15310SOL    HW150777   4.720   6.649   6.315
15310SOL    HW250778   4.854   6.625   6.248
15311SOL     OW50779   4.763   5.834   6.543
15311SOL    HW150780   4.765   5.790   6.458
15311SOL    HW250781   4.759   5.763   6.607
15312SOL     OW50782   4.321   7.057   6.008
15312SOL    HW150783   4.275   7.018   5.934
15312SOL    HW250784   4.300   7.150   6.004
15313SOL     OW50785   5.512   5.956   7.013
15313SOL    HW150786   5.570   6.031   6.999
15313SOL    HW250787   5.528   5.899   6.937
15314SOL     OW50788   3.966   6.955   5.934
15314SOL    HW150789   3.890   6.938   5.877
15314SOL    HW250790   3.930   7.002   6.009
15315SOL     OW50791   3.851   6.611   7.342
15315SOL    HW150792   3.867   6.698   7.379
15315SOL    HW250793   3.922   6.557   7.378
15316SOL     OW50794   4.434   5.804   7.080
15316SOL    HW150795   4.509   5.756   7.044
15316SOL    HW250796   4.452   5.810   7.174
15317SOL     OW50797   3.805   5.908   5.578
15317SOL    HW150798   3.726   5.893   5.528
15317SOL    HW250799   3.826   6.000   5.563
15318SOL     OW50800   5.134   6.431   6.972
15318SOL    HW150801   5.080   6.492   6.921
15318SOL    HW250802   5.221   6.439   6.934
15319SOL     OW50803   3.735   5.714   5.846
15319SOL    HW150804   3.706   5.777   5.780
15319SOL    HW250805   3.825   5.694   5.822
15320SOL     OW50806   4.907   6.923   5.711
15320SOL    HW150807   4.812   6.933   5.713
15320SOL    HW250808   4.934   6.924   5.803
15321SOL     OW50809   4.292   6.543   7.026
15321SOL    HW150810   4.263   6.627   7.061
15321SOL    HW250811   4.379   6.561   6.990
15322SOL     OW50812   5.183   7.399   6.592
15322SOL    HW150813   5.218   7.462   6.528
15322SOL    HW250814   5.196   7.440   6.677
15323SOL     OW50815   4.463   6.135   7.259
15323SOL    HW150816   4.509   6.205   7.305
15323SOL    HW250817   4.469   6.060   7.318
15324SOL     OW50818   4.089   7.352   7.127
15324SOL    HW150819   4.014   7.411   7.118
15324SOL    HW250820   4.052   7.269   7.157
15325SOL     OW50821   5.363   6.447   6.818
15325SOL    HW150822   5.366   6.367   6.765
15325SOL    HW250823   5.349   6.517   6.754
15326SOL     OW50824   4.952   5.911   6.036
15326SOL    HW150825   5.015   5.839   6.036
15326SOL    HW250826   4.975   5.963   6.112
15327SOL     OW50827   4.287   6.296   6.284
15327SOL    HW150828   4.325   6.383   6.278
15327SOL    HW250829   4.232   6.289   6.206
15328SOL     OW50830   5.533   5.950   7.290
15328SOL    HW150831   5.530   5.952   7.194
15328SOL    HW250832   5.465   5.888   7.315
15329SOL     OW50833   5.474   6.502   7.065
15329SOL    HW150834   5.535   6.575   7.057
15329SOL    HW250835   5.445   6.485   6.975
15330SOL     OW50836   4.635   6.980   5.683
15330SOL    HW150837   4.600   6.923   5.751
15330SOL    HW250838   4.582   7.060   5.691
15331SOL     OW50839   4.425   7.375   6.495
15331SOL    HW150840   4.374   7.455   6.483
15331SOL    HW250841   4.486   7.397   6.566
15332SOL     OW50842   4.609   6.559   6.434
15332SOL    HW150843   4.660   6.487   6.472
15332SOL    HW250844   4.585   6.613   6.510
15333SOL     OW50845   4.756   6.549   5.659
15333SOL    HW150846   4.754   6.630   5.609
15333SOL    HW250847   4.838   6.507   5.635
15334SOL     OW50848   5.612   7.137   6.343
15334SOL    HW150849   5.548   7.175   6.283
15334SOL    HW250850   5.560   7.105   6.417
15335SOL     OW50851   3.901   6.876   7.412
15335SOL    HW150852   3.829   6.899   7.471
15335SOL    HW250853   3.980   6.893   7.463
15336SOL     OW50854   3.853   6.748   6.279
15336SOL    HW150855   3.773   6.788   6.245
15336SOL    HW250856   3.912   6.744   6.204
15337SOL     OW50857   4.476   6.981   7.241
15337SOL    HW150858   4.393   6.951   7.278
15337SOL    HW250859   4.492   7.065   7.284
15338SOL     OW50860   5.515   5.763   6.816
15338SOL    HW150861   5.539   5.671   6.829
15338SOL    HW250862   5.535   5.781   6.725
15339SOL     OW50863   4.143   5.968   6.128
15339SOL    HW150864   4.145   5.917   6.047
15339SOL    HW250865   4.071   5.931   6.178
15340SOL     OW50866   5.473   7.064   6.571
15340SOL    HW150867   5.381   7.041   6.567
15340SOL    HW250868   5.476   7.139   6.630
15341SOL     OW50869   4.106   6.169   6.883
15341SOL    HW150870   4.123   6.087   6.930
15341SOL    HW250871   4.089   6.142   6.793
15342SOL     OW50872   4.548   7.250   6.280
15342SOL    HW150873   4.507   7.293   6.355
15342SOL    HW250874   4.504   7.166   6.273
15343SOL     OW50875   5.175   5.847   6.723
15343SOL    HW150876   5.242   5.809   6.780
15343SOL    HW250877   5.110   5.882   6.783
15344SOL     OW50878   4.744   5.591   6.690
15344SOL    HW150879   4.692   5.527   6.641
15344SOL    HW250880   4.833   5.557   6.686
15345SOL     OW50881   4.486   6.856   5.875
15345SOL    HW150882   4.466   6.774   5.921
15345SOL    HW250883   4.454   6.924   5.933
15346SOL     OW50884   4.368   7.083   6.893
15346SOL    HW150885   4.359   7.156   6.954
15346SOL    HW250886   4.449   7.100   6.846
15347SOL     OW50887   5.131   5.620   5.772
15347SOL    HW150888   5.174   5.544   5.733
15347SOL    HW250889   5.040   5.593   5.785
15348SOL     OW50890   5.016   6.054   6.262
15348SOL    HW150891   4.966   6.135   6.263
15348SOL    HW250892   5.017   6.025   6.353
15349SOL     OW50893   5.298   5.776   6.483
15349SOL    HW150894   5.252   5.810   6.559
15349SOL    HW250895   5.298   5.848   6.421
15350SOL     OW50896   3.758   6.633   5.914
15350SOL    HW150897   3.851   6.623   5.895
15350SOL    HW250898   3.729   6.546   5.939
15351SOL     OW50899   4.626   7.262   5.891
15351SOL    HW150900   4.553   7.228   5.839
15351SOL    HW250901   4.590   7.338   5.936
15352SOL     OW50902   3.918   6.174   7.544
15352SOL    HW150903   3.842   6.181   7.602
15352SOL    HW250904   3.941   6.265   7.525
15353SOL     OW50905   3.937   5.861   8.435
15353SOL    HW150906   3.960   5.836   8.525
15353SOL    HW250907   3.846   5.833   8.426
15354SOL     OW50908   3.679   5.997   8.105
15354SOL    HW150909   3.609   5.989   8.170
15354SOL    HW250910   3.662   5.927   8.043
15355SOL     OW50911   4.257   6.830   8.643
15355SOL    HW150912   4.204   6.876   8.577
15355SOL    HW250913   4.301   6.900   8.691
15356SOL     OW50914   5.262   7.089   8.158
15356SOL    HW150915   5.238   7.078   8.251
15356SOL    HW250916   5.178   7.099   8.113
15357SOL     OW50917   4.842   6.331   8.134
15357SOL    HW150918   4.883   6.416   8.122
15357SOL    HW250919   4.802   6.336   8.221
15358SOL     OW50920   5.516   6.112   7.632
15358SOL    HW150921   5.451   6.156   7.577
15358SOL    HW250922   5.464   6.066   7.698
15359SOL     OW50923   4.499   6.737   8.492
15359SOL    HW150924   4.422   6.746   8.548
15359SOL    HW250925   4.511   6.823   8.453
15360SOL     OW50926   4.566   6.297   9.254
15360SOL    HW150927   4.519   6.364   9.303
15360SOL    HW250928   4.619   6.345   9.191
15361SOL     OW50929   4.412   6.568   8.099
15361SOL    HW150930   4.486   6.577   8.159
15361SOL    HW250931   4.347   6.630   8.132
15362SOL     OW50932   4.437   6.756   9.276
15362SOL    HW150933   4.480   6.829   9.320
15362SOL    HW250934   4.351   6.791   9.251
15363SOL     OW50935   4.093   6.963   8.474
15363SOL    HW150936   3.999   6.969   8.456
15363SOL    HW250937   4.129   7.046   8.442
15364SOL     OW50938   5.249   7.093   8.873
15364SOL    HW150939   5.285   7.175   8.839
15364SOL    HW250940   5.160   7.114   8.900
15365SOL     OW50941   4.205   5.985   8.863
15365SOL    HW150942   4.276   5.931   8.898
15365SOL    HW250943   4.128   5.958   8.913
15366SOL     OW50944   5.369   6.053   8.213
15366SOL    HW150945   5.337   6.101   8.137
15366SOL    HW250946   5.310   6.079   8.284
15367SOL     OW50947   3.987   7.265   7.927
15367SOL    HW150948   4.010   7.343   7.977
15367SOL    HW250949   3.921   7.295   7.864
15368SOL     OW50950   4.864   6.926   9.119
15368SOL    HW150951   4.887   6.981   9.194
15368SOL    HW250952   4.814   6.854   9.157
15369SOL     OW50953   3.877   7.039   8.039
15369SOL    HW150954   3.920   7.118   8.007
15369SOL    HW250955   3.828   7.068   8.116
15370SOL     OW50956   3.972   6.679   8.320
15370SOL    HW150957   3.951   6.593   8.357
15370SOL    HW250958   3.923   6.741   8.373
15371SOL     OW50959   4.396   7.327   8.873
15371SOL    HW150960   4.378   7.303   8.964
15371SOL    HW250961   4.399   7.423   8.874
15372SOL     OW50962   4.289   6.544   7.595
15372SOL    HW150963   4.342   6.589   7.529
15372SOL    HW250964   4.325   6.574   7.679
15373SOL     OW50965   5.353   5.699   8.929
15373SOL    HW150966   5.420   5.767   8.923
15373SOL    HW250967   5.293   5.730   8.997
15374SOL     OW50968   5.581   7.345   7.756
15374SOL    HW150969   5.653   7.327   7.817
15374SOL    HW250970   5.584   7.440   7.743
15375SOL     OW50971   3.768   7.195   7.577
15375SOL    HW150972   3.732   7.108   7.594
15375SOL    HW250973   3.745   7.246   7.655
15376SOL     OW50974   5.437   6.442   7.970
15376SOL    HW150975   5.449   6.468   8.061
15376SOL    HW250976   5.403   6.521   7.927
15377SOL     OW50977   5.392   6.711   7.874
15377SOL    HW150978   5.482   6.703   7.843
15377SOL    HW250979   5.400   6.761   7.956
15378SOL     OW50980   3.924   6.341   9.012
15378SOL    HW150981   4.018   6.341   9.030
15378SOL    HW250982   3.890   6.412   9.067
15379SOL     OW50983   4.343   7.006   8.166
15379SOL    HW150984   4.304   6.919   8.177
15379SOL    HW250985   4.300   7.041   8.088
15380SOL     OW50986   4.987   6.799   8.902
15380SOL    HW150987   5.077   6.790   8.933
15380SOL    HW250988   4.940   6.838   8.975
15381SOL     OW50989   4.554   5.601   7.967
15381SOL    HW150990   4.594   5.685   7.946
15381SOL    HW250991   4.461   5.619   7.975
15382SOL     OW50992   3.894   6.554   8.753
15382SOL    HW150993   3.925   6.467   8.779
15382SOL    HW250994   3.806   6.539   8.719
15383SOL     OW50995   5.273   6.648   7.633
15383SOL    HW150996   5.205   6.586   7.658
15383SOL    HW250997   5.313   6.675   7.716
15384SOL     OW50998   4.876   7.392   8.992
15384SOL    HW150999   4.909   7.469   8.946
15384SOL    HW251000   4.847   7.426   9.077
15385SOL     OW51001   4.092   5.847   9.256
15385SOL    HW151002   4.133   5.922   9.299
15385SOL    HW251003   4.002   5.848   9.289
15386SOL     OW51004   5.217   6.998   8.418
15386SOL    HW151005   5.163   7.018   8.494
15386SOL    HW251006   5.189   6.911   8.390
15387SOL     OW51007   5.421   7.287   8.039
15387SOL    HW151008   5.384   7.281   7.951
15387SOL    HW251009   5.361   7.235   8.093
15388SOL     OW51010   4.318   6.264   7.682
15388SOL    HW151011   4.336   6.352   7.651
15388SOL    HW251012   4.264   6.277   7.760
15389SOL     OW51013   5.320   7.261   7.768
15389SOL    HW151014   5.410   7.292   7.761
15389SOL    HW251015   5.276   7.295   7.690
15390SOL     OW51016   4.493   6.176   8.879
15390SOL    HW151017   4.463   6.149   8.966
15390SOL    HW251018   4.466   6.105   8.821
15391SOL     OW51019   5.080   6.082   9.135
15391SOL    HW151020   5.090   6.120   9.222
15391SOL    HW251021   5.144   6.012   9.132
15392SOL     OW51022   4.733   6.420   9.054
15392SOL    HW151023   4.820   6.430   9.093
15392SOL    HW251024   4.698   6.509   9.049
15393SOL     OW51025   4.719   5.978   8.734
15393SOL    HW151026   4.730   6.058   8.786
15393SOL    HW251027   4.625   5.973   8.716
15394SOL     OW51028   4.757   6.268   7.878
15394SOL    HW151029   4.778   6.285   7.969
15394SOL    HW251030   4.676   6.216   7.881
15395SOL     OW51031   3.732   6.351   8.278
15395SOL    HW151032   3.821   6.353   8.312
15395SOL    HW251033   3.696   6.437   8.300
15396SOL     OW51034   3.754   7.475   9.003
15396SOL    HW151035   3.771   7.427   9.084
15396SOL    HW251036   3.810   7.553   9.008
15397SOL     OW51037   4.628   5.921   7.630
15397SOL    HW151038   4.668   5.990   7.576
15397SOL    HW251039   4.652   5.840   7.585
15398SOL     OW51040   5.368   6.119   9.293
15398SOL    HW151041   5.370   6.162   9.207
15398SOL    HW251042   5.407   6.033   9.278
15399SOL     OW51043   5.108   6.741   7.956
15399SOL    HW151044   5.197   6.748   7.922
15399SOL    HW251045   5.059   6.810   7.911
15400SOL     OW51046   4.260   5.720   8.388
15400SOL    HW151047   4.266   5.733   8.483
15400SOL    HW251048   4.255   5.809   8.352
15401SOL     OW51049   4.692   7.015   7.846
15401SOL    HW151050   4.677   7.102   7.811
15401SOL    HW251051   4.664   7.020   7.937
15402SOL     OW51052   4.053   7.409   8.337
15402SOL    HW151053   4.109   7.333   8.354
15402SOL    HW251054   4.108   7.485   8.358
15403SOL     OW51055   5.425   6.570   8.234
15403SOL    HW151056   5.439   6.654   8.190
15403SOL    HW251057   5.411   6.593   8.325
15404SOL     OW51058   4.986   7.137   8.937
15404SOL    HW151059   4.945   7.083   9.005
15404SOL    HW251060   4.951   7.225   8.952
15405SOL     OW51061   4.042   6.555   7.733
15405SOL    HW151062   4.125   6.561   7.687
15405SOL    HW251063   3.983   6.512   7.671
15406SOL     OW51064   5.189   6.400   8.214
15406SOL    HW151065   5.146   6.394   8.299
15406SOL    HW251066   5.270   6.450   8.232
15407SOL     OW51067   4.195   6.853   9.183
15407SOL    HW151068   4.156   6.826   9.100
15407SOL    HW251069   4.120   6.868   9.241
15408SOL     OW51070   4.780   7.341   7.587
15408SOL    HW151071   4.740   7.321   7.671
15408SOL    HW251072   4.849   7.405   7.608
15409SOL     OW51073   3.983   5.891   8.995
15409SOL    HW151074   3.929   5.965   9.024
15409SOL    HW251075   4.019   5.854   9.075
15410SOL     OW51076   5.353   6.997   7.621
15410SOL    HW151077   5.334   7.090   7.619
15410SOL    HW251078   5.301   6.963   7.694
15411SOL     OW51079   4.344   7.312   7.764
15411SOL    HW151080   4.318   7.370   7.836
15411SOL    HW251081   4.359   7.372   7.690
15412SOL     OW51082   5.122   5.711   7.906
15412SOL    HW151083   5.123   5.681   7.815
15412SOL    HW251084   5.214   5.726   7.927
15413SOL     OW51085   3.936   7.397   8.744
15413SOL    HW151086   3.981   7.376   8.826
15413SOL    HW251087   3.966   7.486   8.723
15414SOL     OW51088   4.718   7.232   8.355
15414SOL    HW151089   4.721   7.263   8.446
15414SOL    HW251090   4.733   7.310   8.302
15415SOL     OW51091   4.150   6.282   7.897
15415SOL    HW151092   4.114   6.196   7.917
15415SOL    HW251093   4.076   6.342   7.907
15416SOL     OW51094   5.200   5.829   9.125
15416SOL    HW151095   5.292   5.851   9.134
15416SOL    HW251096   5.167   5.825   9.215
15417SOL     OW51097   4.383   5.692   7.553
15417SOL    HW151098   4.434   5.617   7.585
15417SOL    HW251099   4.330   5.656   7.482
15418SOL     OW51100   4.472   5.840   9.195
15418SOL    HW151101   4.559   5.800   9.202
15418SOL    HW251102   4.431   5.822   9.280
15419SOL     OW51103   4.631   7.096   8.628
15419SOL    HW151104   4.689   7.028   8.664
15419SOL    HW251105   4.646   7.172   8.683
15420SOL     OW51106   5.066   6.221   8.897
15420SOL    HW151107   5.086   6.183   8.982
15420SOL    HW251108   5.110   6.306   8.898
15421SOL     OW51109   4.555   6.983   8.386
15421SOL    HW151110   4.572   7.040   8.461
15421SOL    HW251111   4.478   7.022   8.344
15422SOL     OW51112   4.688   6.084   8.354
15422SOL    HW151113   4.656   6.067   8.266
15422SOL    HW251114   4.726   6.001   8.382
15423SOL     OW51115   4.278   5.649   7.937
15423SOL    HW151116   4.204   5.649   7.998
15423SOL    HW251117   4.263   5.726   7.882
15424SOL     OW51118   5.172   6.832   7.444
15424SOL    HW151119   5.210   6.764   7.500
15424SOL    HW251120   5.081   6.839   7.471
15425SOL     OW51121   4.033   5.629   7.666
15425SOL    HW151122   4.089   5.705   7.681
15425SOL    HW251123   4.075   5.558   7.715
15426SOL     OW51124   4.671   5.842   7.897
15426SOL    HW151125   4.650   5.875   7.810
15426SOL    HW251126   4.764   5.864   7.910
15427SOL     OW51127   4.796   6.226   8.844
15427SOL    HW151128   4.749   6.270   8.915
15427SOL    HW251129   4.888   6.230   8.870
15428SOL     OW51130   4.961   7.129   8.213
15428SOL    HW151131   4.964   7.204   8.153
15428SOL    HW251132   4.989   7.165   8.298
15429SOL     OW51133   4.213   6.750   8.179
15429SOL    HW151134   4.143   6.737   8.244
15429SOL    HW251135   4.168   6.746   8.095
15430SOL     OW51136   4.969   7.360   8.056
15430SOL    HW151137   5.009   7.431   8.006
15430SOL    HW251138   4.903   7.403   8.110
15431SOL     OW51139   4.749   6.116   7.469
15431SOL    HW151140   4.708   6.201   7.451
15431SOL    HW251141   4.806   6.133   7.544
15432SOL     OW51142   3.840   6.146   8.836
15432SOL    HW151143   3.931   6.151   8.808
15432SOL    HW251144   3.832   6.212   8.905
15433SOL     OW51145   4.266   5.777   8.657
15433SOL    HW151146   4.304   5.753   8.742
15433SOL    HW251147   4.174   5.793   8.676
15434SOL     OW51148   4.591   6.033   8.100
15434SOL    HW151149   4.529   6.094   8.061
15434SOL    HW251150   4.610   5.969   8.031
15435SOL     OW51151   4.765   5.624   8.187
15435SOL    HW151152   4.695   5.625   8.122
15435SOL    HW251153   4.732   5.566   8.256
15436SOL     OW51154   5.169   6.749   8.305
15436SOL    HW151155   5.085   6.708   8.283
15436SOL    HW251156   5.208   6.770   8.220
15437SOL     OW51157   5.197   6.095   8.430
15437SOL    HW151158   5.118   6.108   8.483
15437SOL    HW251159   5.266   6.141   8.478
15438SOL     OW51160   5.612   6.351   7.759
15438SOL    HW151161   5.566   6.377   7.839
15438SOL    HW251162   5.571   6.269   7.732
15439SOL     OW51163   4.119   6.931   7.564
15439SOL    HW151164   4.085   6.928   7.653
15439SOL    HW251165   4.183   7.002   7.564
15440SOL     OW51166   5.396   6.844   8.114
15440SOL    HW151167   5.490   6.849   8.131
15440SOL    HW251168   5.365   6.933   8.130
15441SOL     OW51169   5.107   6.127   7.517
15441SOL    HW151170   5.038   6.140   7.582
15441SOL    HW251171   5.157   6.052   7.548
15442SOL     OW51172   4.219   5.830   7.732
15442SOL    HW151173   4.289   5.795   7.676
15442SOL    HW251174   4.197   5.914   7.694
15443SOL     OW51175   5.479   6.827   9.087
15443SOL    HW151176   5.553   6.798   9.035
15443SOL    HW251177   5.507   6.816   9.178
15444SOL     OW51178   4.779   6.900   8.752
15444SOL    HW151179   4.711   6.893   8.818
15444SOL    HW251180   4.860   6.880   8.798
15445SOL     OW51181   5.330   7.269   9.114
15445SOL    HW151182   5.344   7.361   9.095
15445SOL    HW251183   5.261   7.267   9.180
15446SOL     OW51184   4.761   6.694   8.577
15446SOL    HW151185   4.777   6.776   8.624
15446SOL    HW251186   4.675   6.705   8.538
15447SOL     OW51187   5.374   6.668   8.491
15447SOL    HW151188   5.403   6.737   8.550
15447SOL    HW251189   5.290   6.699   8.458
15448SOL     OW51190   4.649   5.692   8.852
15448SOL    HW151191   4.690   5.682   8.766
15448SOL    HW251192   4.715   5.737   8.905
15449SOL     OW51193   4.666   6.687   9.148
15449SOL    HW151194   4.582   6.711   9.187
15449SOL    HW251195   4.713   6.642   9.218
15450SOL     OW51196   4.426   6.621   7.822
15450SOL    HW151197   4.414   6.611   7.916
15450SOL    HW251198   4.495   6.558   7.800
15451SOL     OW51199   4.170   6.462   8.741
15451SOL    HW151200   4.252   6.454   8.790
15451SOL    HW251201   4.138   6.372   8.733
15452SOL     OW51202   4.995   6.084   8.667
15452SOL    HW151203   5.056   6.114   8.735
15452SOL    HW251204   4.917   6.139   8.678
15453SOL     OW51205   3.852   7.138   8.757
15453SOL    HW151206   3.859   7.231   8.736
15453SOL    HW251207   3.943   7.111   8.774
15454SOL     OW51208   4.077   6.729   7.944
15454SOL    HW151209   4.044   6.807   7.899
15454SOL    HW251210   4.068   6.658   7.879
15455SOL     OW51211   4.268   6.141   8.318
15455SOL    HW151212   4.295   6.185   8.237
15455SOL    HW251213   4.338   6.161   8.380
15456SOL     OW51214   4.964   6.943   7.824
15456SOL    HW151215   5.011   7.019   7.856
15456SOL    HW251216   4.871   6.964   7.838
15457SOL     OW51217   5.083   6.996   8.659
15457SOL    HW151218   5.146   7.010   8.729
15457SOL    HW251219   5.001   7.034   8.693
15458SOL     OW51220   5.289   6.206   7.997
15458SOL    HW151221   5.208   6.237   8.038
15458SOL    HW251222   5.340   6.286   7.981
15459SOL     OW51223   4.112   7.078   8.824
15459SOL    HW151224   4.196   7.082   8.778
15459SOL    HW251225   4.109   7.158   8.877
15460SOL     OW51226   4.201   6.307   9.049
15460SOL    HW151227   4.266   6.361   9.004
15460SOL    HW251228   4.251   6.232   9.082
15461SOL     OW51229   5.319   6.311   9.086
15461SOL    HW151230   5.254   6.366   9.130
15461SOL    HW251231   5.368   6.371   9.030
15462SOL     OW51232   4.721   5.702   9.216
15462SOL    HW151233   4.773   5.781   9.205
15462SOL    HW251234   4.757   5.660   9.294
15463SOL     OW51235   4.227   5.608   9.207
15463SOL    HW151236   4.164   5.557   9.156
15463SOL    HW251237   4.183   5.692   9.223
15464SOL     OW51238   5.037   6.419   8.445
15464SOL    HW151239   4.943   6.405   8.438
15464SOL    HW251240   5.048   6.476   8.522
15465SOL     OW51241   4.902   6.117   7.703
15465SOL    HW151242   4.920   6.043   7.761
15465SOL    HW251243   4.860   6.182   7.759
15466SOL     OW51244   3.993   5.789   8.703
15466SOL    HW151245   3.970   5.819   8.792
15466SOL    HW251246   3.975   5.695   8.704
15467SOL     OW51247   3.827   6.866   8.722
15467SOL    HW151248   3.806   6.832   8.809
15467SOL    HW251249   3.824   6.961   8.732
15468SOL     OW51250   4.474   6.192   8.494
15468SOL    HW151251   4.549   6.157   8.445
15468SOL    HW251252   4.512   6.258   8.552
15469SOL     OW51253   5.443   6.515   9.313
15469SOL    HW151254   5.428   6.423   9.333
15469SOL    HW251255   5.390   6.563   9.377
15470SOL     OW51256   4.030   5.634   8.067
15470SOL    HW151257   3.991   5.720   8.085
15470SOL    HW251258   4.035   5.592   8.153
15471SOL     OW51259   5.345   5.997   7.817
15471SOL    HW151260   5.363   5.920   7.871
15471SOL    HW251261   5.317   6.064   7.880
15472SOL     OW51262   4.755   6.349   8.403
15472SOL    HW151263   4.721   6.366   8.491
15472SOL    HW251264   4.738   6.256   8.388
15473SOL     OW51265   4.670   7.128   9.111
15473SOL    HW151266   4.649   7.180   9.033
15473SOL    HW251267   4.722   7.055   9.078
15474SOL     OW51268   5.598   7.099   8.993
15474SOL    HW151269   5.618   7.119   8.902
15474SOL    HW251270   5.674   7.131   9.042
15475SOL     OW51271   4.060   6.479   9.272
15475SOL    HW151272   4.051   6.483   9.367
15475SOL    HW251273   4.151   6.452   9.258
15476SOL     OW51274   5.232   5.888   7.589
15476SOL    HW151275   5.191   5.806   7.615
15476SOL    HW251276   5.273   5.920   7.670
15477SOL     OW51277   5.010   6.395   7.454
15477SOL    HW151278   5.065   6.317   7.455
15477SOL    HW251279   5.038   6.443   7.376
15478SOL     OW51280   3.989   6.385   8.383
15478SOL    HW151281   4.078   6.415   8.364
15478SOL    HW251282   4.000   6.299   8.422
15479SOL     OW51283   4.036   6.116   8.457
15479SOL    HW151284   4.005   6.026   8.444
15479SOL    HW251285   4.116   6.121   8.404
15480SOL     OW51286   4.842   5.947   9.156
15480SOL    HW151287   4.791   5.997   9.219
15480SOL    HW251288   4.925   5.995   9.147
15481SOL     OW51289   4.925   5.797   8.933
15481SOL    HW151290   4.881   5.851   8.999
15481SOL    HW251291   5.018   5.803   8.955
15482SOL     OW51292   3.712   6.918   7.608
15482SOL    HW151293   3.627   6.932   7.567
15482SOL    HW251294   3.701   6.838   7.659
15483SOL     OW51295   3.790   7.349   8.403
15483SOL    HW151296   3.781   7.272   8.346
15483SOL    HW251297   3.881   7.377   8.391
15484SOL     OW51298   4.223   7.180   8.355
15484SOL    HW151299   4.289   7.246   8.375
15484SOL    HW251300   4.260   7.129   8.282
15485SOL     OW51301   4.639   6.357   8.651
15485SOL    HW151302   4.683   6.306   8.719
15485SOL    HW251303   4.613   6.438   8.695
15486SOL     OW51304   3.770   6.123   8.572
15486SOL    HW151305   3.852   6.130   8.523
15486SOL    HW251306   3.796   6.128   8.664
15487SOL     OW51307   3.910   6.117   9.181
15487SOL    HW151308   3.930   6.155   9.266
15487SOL    HW251309   3.908   6.191   9.121
15488SOL     OW51310   5.106   6.509   9.146
15488SOL    HW151311   5.121   6.600   9.173
15488SOL    HW251312   5.115   6.509   9.051
15489SOL     OW51313   4.528   6.122   7.812
15489SOL    HW151314   4.543   6.053   7.748
15489SOL    HW251315   4.460   6.177   7.773
15490SOL     OW51316   5.404   6.201   8.578
15490SOL    HW151317   5.392   6.145   8.655
15490SOL    HW251318   5.496   6.191   8.556
15491SOL     OW51319   3.939   7.112   9.144
15491SOL    HW151320   3.907   7.187   9.194
15491SOL    HW251321   3.953   7.044   9.209
15492SOL     OW51322   4.452   5.987   8.677
15492SOL    HW151323   4.377   5.929   8.668
15492SOL    HW251324   4.438   6.055   8.611
15493SOL     OW51325   4.662   7.252   8.859
15493SOL    HW151326   4.577   7.297   8.860
15493SOL    HW251327   4.725   7.320   8.886
15494SOL     OW51328   4.168   6.054   7.580
15494SOL    HW151329   4.226   6.124   7.609
15494SOL    HW251330   4.081   6.095   7.574
15495SOL     OW51331   3.825   6.719   8.965
15495SOL    HW151332   3.821   6.669   9.046
15495SOL    HW251333   3.842   6.654   8.896
15496SOL     OW51334   5.019   6.624   8.667
15496SOL    HW151335   4.935   6.641   8.623
15496SOL    HW251336   5.023   6.691   8.736
15497SOL     OW51337   5.079   6.473   7.714
15497SOL    HW151338   5.007   6.473   7.777
15497SOL    HW251339   5.040   6.443   7.632
15498SOL     OW51340   5.532   7.342   8.548
15498SOL    HW151341   5.458   7.390   8.510
15498SOL    HW251342   5.524   7.254   8.512
15499SOL     OW51343   5.027   7.259   8.444
15499SOL    HW151344   5.110   7.305   8.456
15499SOL    HW251345   4.966   7.303   8.503
15500SOL     OW51346   3.806   6.853   8.452
15500SOL    HW151347   3.810   6.850   8.548
15500SOL    HW251348   3.730   6.908   8.433
15501SOL     OW51349   4.370   7.271   9.143
15501SOL    HW151350   4.293   7.324   9.163
15501SOL    HW251351   4.434   7.296   9.210
15502SOL     OW51352   5.403   5.744   7.921
15502SOL    HW151353   5.488   5.740   7.877
15502SOL    HW251354   5.399   5.666   7.976
15503SOL     OW51355   5.101   7.160   7.915
15503SOL    HW151356   5.175   7.202   7.870
15503SOL    HW251357   5.054   7.233   7.956
15504SOL     OW51358   3.818   7.343   9.236
15504SOL    HW151359   3.769   7.282   9.292
15504SOL    HW251360   3.877   7.388   9.297
15505SOL     OW51361   4.987   6.568   8.123
15505SOL    HW151362   5.058   6.510   8.150
15505SOL    HW251363   5.026   6.625   8.057
15506SOL     OW51364   4.579   6.840   8.931
15506SOL    HW151365   4.609   6.797   9.011
15506SOL    HW251366   4.512   6.902   8.961
15507SOL     OW51367   4.298   7.136   7.543
15507SOL    HW151368   4.333   7.187   7.470
15507SOL    HW251369   4.308   7.192   7.619
15508SOL     OW51370   5.351   7.328   8.772
15508SOL    HW151371   5.420   7.339   8.707
15508SOL    HW251372   5.327   7.417   8.797
15509SOL     OW51373   5.577   5.742   8.442
15509SOL    HW151374   5.592   5.656   8.404
15509SOL    HW251375   5.488   5.765   8.414
15510SOL     OW51376   3.938   5.885   8.151
15510SOL    HW151377   3.854   5.930   8.140
15510SOL    HW251378   3.949   5.880   8.246
15511SOL     OW51379   4.987   7.241   7.402
15511SOL    HW151380   4.909   7.265   7.451
15511SOL    HW251381   4.991   7.305   7.331
15512SOL     OW51382   4.598   6.601   8.789
15512SOL    HW151383   4.667   6.627   8.727
15512SOL    HW251384   4.579   6.680   8.838
15513SOL     OW51385   4.610   6.447   7.726
15513SOL    HW151386   4.669   6.483   7.660
15513SOL    HW251387   4.666   6.390   7.780
15514SOL     OW51388   5.245   7.214   7.483
15514SOL    HW151389   5.150   7.223   7.468
15514SOL    HW251390   5.284   7.278   7.423
15515SOL     OW51391   4.078   6.823   8.921
15515SOL    HW151392   4.093   6.916   8.901
15515SOL    HW251393   3.991   6.821   8.959
15516SOL     OW51394   4.787   6.796   8.209
15516SOL    HW151395   4.721   6.733   8.238
15516SOL    HW251396   4.853   6.743   8.165
15517SOL     OW51397   4.803   5.827   8.423
15517SOL    HW151398   4.816   5.794   8.334
15517SOL    HW251399   4.769   5.752   8.471
15518SOL     OW51400   4.230   7.123   7.943
15518SOL    HW151401   4.279   7.173   7.878
15518SOL    HW251402   4.143   7.163   7.944
15519SOL     OW51403   5.414   6.012   8.777
15519SOL    HW151404   5.462   6.056   8.848
15519SOL    HW251405   5.466   5.934   8.759
15520SOL     OW51406   3.937   6.919   7.793
15520SOL    HW151407   3.866   6.947   7.734
15520SOL    HW251408   3.919   6.966   7.875
15521SOL     OW51409   3.820   6.546   9.173
15521SOL    HW151410   3.757   6.558   9.244
15521SOL    HW251411   3.904   6.534   9.218
15522SOL     OW51412   4.393   5.773   8.933
15522SOL    HW151413   4.481   5.754   8.901
15522SOL    HW251414   4.405   5.797   9.025
15523SOL     OW51415   3.836   5.899   7.482
15523SOL    HW151416   3.765   5.899   7.418
15523SOL    HW251417   3.852   5.991   7.501
15524SOL     OW51418   5.157   6.483   8.875
15524SOL    HW151419   5.125   6.531   8.798
15524SOL    HW251420   5.250   6.505   8.880
15525SOL     OW51421   3.775   5.725   7.707
15525SOL    HW151422   3.765   5.791   7.638
15525SOL    HW251423   3.868   5.702   7.706
15526SOL     OW51424   4.917   6.856   7.564
15526SOL    HW151425   4.826   6.828   7.578
15526SOL    HW251426   4.945   6.890   7.649
15527SOL     OW51427   4.398   6.431   8.885
15527SOL    HW151428   4.467   6.495   8.865
15527SOL    HW251429   4.442   6.346   8.882
15528SOL     OW51430   5.258   7.422   8.471
15528SOL    HW151431   5.269   7.484   8.399
15528SOL    HW251432   5.221   7.473   8.542
15529SOL     OW51433   4.404   6.111   9.130
15529SOL    HW151434   4.456   6.170   9.184
15529SOL    HW251435   4.423   6.024   9.163
15530SOL     OW51436   5.213   6.778   9.050
15530SOL    HW151437   5.181   6.792   9.139
15530SOL    HW251438   5.308   6.782   9.057
15531SOL     OW51439   4.058   7.299   8.977
15531SOL    HW151440   4.097   7.363   9.036
15531SOL    HW251441   4.014   7.237   9.034
15532SOL     OW51442   5.505   6.468   8.641
15532SOL    HW151443   5.455   6.387   8.631
15532SOL    HW251444   5.455   6.533   8.591
15533SOL     OW51445   4.939   5.925   7.907
15533SOL    HW151446   5.001   5.853   7.914
15533SOL    HW251447   4.960   5.983   7.980
15534SOL     OW51448   4.348   6.291   8.096
15534SOL    HW151449   4.377   6.383   8.101
15534SOL    HW251450   4.285   6.290   8.025
15535SOL     OW51451   5.431   6.511   8.918
15535SOL    HW151452   5.486   6.562   8.977
15535SOL    HW251453   5.481   6.506   8.836
15536SOL     OW51454   4.405   7.380   8.383
15536SOL    HW151455   4.360   7.461   8.361
15536SOL    HW251456   4.470   7.405   8.449
15537SOL     OW51457   4.615   6.586   8.292
15537SOL    HW151458   4.662   6.513   8.331
15537SOL    HW251459   4.568   6.626   8.365
15538SOL     OW51460   4.772   6.516   7.519
15538SOL    HW151461   4.764   6.594   7.464
15538SOL    HW251462   4.858   6.480   7.496
15539SOL     OW51463   5.585   7.104   8.188
15539SOL    HW151464   5.544   7.177   8.141
15539SOL    HW251465   5.550   7.110   8.277
15540SOL     OW51466   3.956   6.898   9.322
15540SOL    HW151467   3.869   6.858   9.311
15540SOL    HW251468   3.956   6.930   9.412
15541SOL     OW51469   3.783   6.795   8.140
15541SOL    HW151470   3.857   6.754   8.185
15541SOL    HW251471   3.820   6.873   8.099
15542SOL     OW51472   4.389   7.003   9.049
15542SOL    HW151473   4.321   6.962   9.103
15542SOL    HW251474   4.391   7.094   9.078
15543SOL     OW51475   5.567   5.793   8.719
15543SOL    HW151476   5.655   5.787   8.754
15543SOL    HW251477   5.577   5.770   8.626
15544SOL     OW51478   4.074   6.022   7.944
15544SOL    HW151479   4.122   5.949   7.904
15544SOL    HW251480   4.031   5.983   8.020
15545SOL     OW51481   5.476   7.079   8.462
15545SOL    HW151482   5.384   7.062   8.442
15545SOL    HW251483   5.484   7.059   8.556
15546SOL     OW51484   4.090   6.193   8.722
15546SOL    HW151485   4.142   6.129   8.772
15546SOL    HW251486   4.086   6.156   8.634
15547SOL     OW51487   4.599   7.097   8.099
15547SOL    HW151488   4.591   7.192   8.100
15547SOL    HW251489   4.511   7.065   8.118
15548SOL     OW51490   5.113   5.772   8.640
15548SOL    HW151491   5.146   5.698   8.589
15548SOL    HW251492   5.189   5.803   8.689
15549SOL     OW51493   4.778   5.619   8.603
15549SOL    HW151494   4.704   5.557   8.600
15549SOL    HW251495   4.852   5.569   8.568
15550SOL     OW51496   4.573   6.820   7.675
15550SOL    HW151497   4.520   6.767   7.735
15550SOL    HW251498   4.609   6.890   7.729
15551SOL     OW51499   4.366   7.093   8.718
15551SOL    HW151500   4.368   7.174   8.769
15551SOL    HW251501   4.454   7.086   8.681
15552SOL     OW51502   5.123   5.635   7.635
15552SOL    HW151503   5.169   5.555   7.610
15552SOL    HW251504   5.031   5.608   7.639
15553SOL     OW51505   5.000   6.099   8.115
15553SOL    HW151506   4.943   6.176   8.118
15553SOL    HW251507   5.039   6.096   8.203
15554SOL     OW51508   5.317   5.820   8.365
15554SOL    HW151509   5.265   5.880   8.419
15554SOL    HW251510   5.343   5.873   8.289
15555SOL     OW51511   3.740   6.688   7.765
15555SOL    HW151512   3.825   6.720   7.796
15555SOL    HW251513   3.749   6.593   7.766
15556SOL     OW51514   4.616   7.276   7.801
15556SOL    HW151515   4.522   7.276   7.782
15556SOL    HW251516   4.626   7.340   7.872
15557SOL     OW51517   3.931   6.214   9.455
15557SOL    HW151518   3.953   6.301   9.489
15557SOL    HW251519   3.847   6.193   9.496
15558SOL     OW51520   5.493   6.166   9.533
15558SOL    HW151521   5.443   6.146   9.454
15558SOL    HW251522   5.452   6.113   9.601
15559SOL     OW51523   4.421   6.500   9.380
15559SOL    HW151524   4.418   6.580   9.329
15559SOL    HW251525   4.434   6.529   9.471
15560SOL     OW51526   3.872   6.312   9.911
15560SOL    HW151527   3.816   6.307   9.834
15560SOL    HW251528   3.857   6.401   9.945
15561SOL     OW51529   5.545   7.328   9.693
15561SOL    HW151530   5.630   7.284   9.699
15561SOL    HW251531   5.531   7.366   9.780
15562SOL     OW51532   3.734   7.134   9.393
15562SOL    HW151533   3.803   7.098   9.448
15562SOL    HW251534   3.684   7.191   9.452
15563SOL     OW51535   5.417   6.577   9.869
15563SOL    HW151536   5.495   6.619   9.906
15563SOL    HW251537   5.386   6.638   9.802
15564SOL     OW51538   5.416   6.785   9.678
15564SOL    HW151539   5.501   6.752   9.650
15564SOL    HW251540   5.435   6.871   9.717
15565SOL     OW51541   4.255   6.949   0.100
15565SOL    HW151542   4.302   6.886   0.155
15565SOL    HW251543   4.176   6.970   0.151
15566SOL     OW51544   4.520   5.619   9.752
15566SOL    HW151545   4.574   5.698   9.761
15566SOL    HW251546   4.437   5.642   9.793
15567SOL     OW51547   5.247   6.645   9.515
15567SOL    HW151548   5.181   6.620   9.579
15567SOL    HW251549   5.310   6.698   9.564
15568SOL     OW51550   4.325   6.285   9.580
15568SOL    HW151551   4.328   6.362   9.523
15568SOL    HW251552   4.254   6.302   9.642
15569SOL     OW51553   5.310   7.196   9.615
15569SOL    HW151554   5.392   7.239   9.641
15569SOL    HW251555   5.257   7.267   9.578
15570SOL     OW51556   4.731   6.288   9.846
15570SOL    HW151557   4.799   6.355   9.849
15570SOL    HW251558   4.749   6.233   9.922
15571SOL     OW51559   3.845   6.559   0.029
15571SOL    HW151560   3.836   6.642   9.983
15571SOL    HW251561   3.794   6.571   0.110
15572SOL     OW51562   4.680   5.855   9.491
15572SOL    HW151563   4.682   5.940   9.447
15572SOL    HW251564   4.768   5.819   9.477
15573SOL     OW51565   5.059   6.655   9.732
15573SOL    HW151566   5.096   6.675   9.819
15573SOL    HW251567   5.013   6.735   9.707
15574SOL     OW51568   4.696   7.002   9.769
15574SOL    HW151569   4.683   7.096   9.755
15574SOL    HW251570   4.688   6.990   9.864
15575SOL     OW51571   4.173   7.350   0.043
15575SOL    HW151572   4.170   7.396   0.127
15575SOL    HW251573   4.146   7.415   9.978
15576SOL     OW51574   4.002   6.479   9.541
15576SOL    HW151575   4.070   6.517   9.597
15576SOL    HW251576   3.923   6.527   9.564
15577SOL     OW51577   4.840   7.344   9.506
15577SOL    HW151578   4.783   7.314   9.576
15577SOL    HW251579   4.805   7.429   9.481
15578SOL     OW51580   5.298   6.983   9.274
15578SOL    HW151581   5.256   7.063   9.304
15578SOL    HW251582   5.242   6.913   9.308
15579SOL     OW51583   4.234   7.350   9.663
15579SOL    HW151584   4.168   7.419   9.658
15579SOL    HW251585   4.316   7.396   9.680
15580SOL     OW51586   5.111   5.729   9.783
15580SOL    HW151587   5.116   5.700   9.691
15580SOL    HW251588   5.202   5.743   9.808
15581SOL     OW51589   4.131   6.284   9.791
15581SOL    HW151590   4.127   6.189   9.800
15581SOL    HW251591   4.044   6.315   9.819
15582SOL     OW51592   4.369   5.707   9.427
15582SOL    HW151593   4.443   5.653   9.457
15582SOL    HW251594   4.325   5.653   9.362
15583SOL     OW51595   4.266   5.699   9.836
15583SOL    HW151596   4.178   5.695   9.875
15583SOL    HW251597   4.258   5.762   9.765
15584SOL     OW51598   5.113   6.764   9.307
15584SOL    HW151599   5.156   6.719   9.379
15584SOL    HW251600   5.028   6.789   9.342
15585SOL     OW51601   4.013   5.665   9.506
15585SOL    HW151602   4.067   5.741   9.526
15585SOL    HW251603   4.064   5.591   9.539
15586SOL     OW51604   4.658   5.859   9.763
15586SOL    HW151605   4.657   5.862   9.668
15586SOL    HW251606   4.747   5.885   9.787
15587SOL     OW51607   4.156   6.711   9.979
15587SOL    HW151608   4.210   6.788   9.998
15587SOL    HW251609   4.088   6.744   9.920
15588SOL     OW51610   5.048   7.332   9.921
15588SOL    HW151611   5.104   7.392   9.872
15588SOL    HW251612   4.992   7.389   9.973
15589SOL     OW51613   4.729   6.094   9.362
15589SOL    HW151614   4.674   6.170   9.338
15589SOL    HW251615   4.781   6.125   9.435
15590SOL     OW51616   4.509   6.088   9.823
15590SOL    HW151617   4.515   6.095   9.918
15590SOL    HW251618   4.554   6.006   9.803
15591SOL     OW51619   5.665   6.369   9.609
15591SOL    HW151620   5.676   6.353   9.703
15591SOL    HW251621   5.595   6.309   9.582
15592SOL     OW51622   4.211   7.060   9.493
15592SOL    HW151623   4.149   6.987   9.499
15592SOL    HW251624   4.158   7.138   9.505
15593SOL     OW51625   5.089   6.150   9.402
15593SOL    HW151626   5.031   6.121   9.473
15593SOL    HW251627   5.170   6.100   9.414
15594SOL     OW51628   4.214   5.848   9.603
15594SOL    HW151629   4.278   5.801   9.550
15594SOL    HW251630   4.199   5.930   9.557
15595SOL     OW51631   4.428   6.606   9.628
15595SOL    HW151632   4.338   6.618   9.657
15595SOL    HW251633   4.465   6.695   9.629
15596SOL     OW51634   4.165   6.631   9.709
15596SOL    HW151635   4.100   6.702   9.708
15596SOL    HW251636   4.184   6.618   9.802
15597SOL     OW51637   4.931   6.896   9.668
15597SOL    HW151638   4.993   6.964   9.693
15597SOL    HW251639   4.848   6.925   9.705
15598SOL     OW51640   4.888   6.126   9.597
15598SOL    HW151641   4.898   6.063   9.668
15598SOL    HW251642   4.887   6.211   9.641
15599SOL     OW51643   4.008   5.695   9.942
15599SOL    HW151644   3.930   5.747   9.960
15599SOL    HW251645   4.032   5.658   0.027
15600SOL     OW51646   5.375   6.021   9.736
15600SOL    HW151647   5.374   5.928   9.759
15600SOL    HW251648   5.400   6.065   9.816
15601SOL     OW51649   5.169   5.853   9.396
15601SOL    HW151650   5.152   5.779   9.454
15601SOL    HW251651   5.264   5.866   9.399
15602SOL     OW51652   5.015   6.412   9.387
15602SOL    HW151653   5.045   6.321   9.392
15602SOL    HW251654   5.056   6.446   9.307
15603SOL     OW51655   3.690   6.828   9.387
15603SOL    HW151656   3.608   6.878   9.386
15603SOL    HW251657   3.733   6.854   9.467
15604SOL     OW51658   4.170   6.070   9.451
15604SOL    HW151659   4.235   6.134   9.480
15604SOL    HW251660   4.087   6.117   9.453
15605SOL     OW51661   4.930   6.421   9.651
15605SOL    HW151662   4.970   6.497   9.693
15605SOL    HW251663   4.971   6.417   9.565
15606SOL     OW51664   5.390   5.747   9.821
15606SOL    HW151665   5.437   5.676   9.777
15606SOL    HW251666   5.443   5.768   9.897
15607SOL     OW51667   5.090   7.103   9.753
15607SOL    HW151668   5.171   7.121   9.705
15607SOL    HW251669   5.069   7.186   9.796
15608SOL     OW51670   4.463   7.164   9.477
15608SOL    HW151671   4.454   7.255   9.448
15608SOL    HW251672   4.373   7.131   9.481
15609SOL     OW51673   4.874   7.156   9.300
15609SOL    HW151674   4.865   7.213   9.376
15609SOL    HW251675   4.798   7.177   9.246
15610SOL     OW51676   4.668   6.388   9.563
15610SOL    HW151677   4.667   6.450   9.490
15610SOL    HW251678   4.755   6.399   9.603
15611SOL     OW51679   5.144   7.204   9.305
15611SOL    HW151680   5.149   7.268   9.376
15611SOL    HW251681   5.051   7.186   9.296
15612SOL     OW51682   3.822   5.893   9.314
15612SOL    HW151683   3.729   5.875   9.300
15612SOL    HW251684   3.839   5.974   9.267
15613SOL     OW51685   3.758   5.742   9.598
15613SOL    HW151686   3.745   5.830   9.564
15613SOL    HW251687   3.844   5.716   9.565
15614SOL     OW51688   4.852   6.828   9.413
15614SOL    HW151689   4.773   6.880   9.398
15614SOL    HW251690   4.882   6.854   9.500
15615SOL     OW51691   4.922   5.936   9.808
15615SOL    HW151692   4.989   5.868   9.796
15615SOL    HW251693   4.941   5.973   9.894
15616SOL     OW51694   4.373   6.389   9.876
15616SOL    HW151695   4.363   6.456   9.943
15616SOL    HW251696   4.283   6.358   9.860
15617SOL     OW51697   4.612   6.973   9.337
15617SOL    HW151698   4.569   7.029   9.402
15617SOL    HW251699   4.620   7.030   9.260
15618SOL     OW51700   4.788   6.563   9.359
15618SOL    HW151701   4.811   6.649   9.394
15618SOL    HW251702   4.865   6.510   9.373
15619SOL     OW51703   4.106   6.010   9.814
15619SOL    HW151704   4.142   5.952   9.747
15619SOL    HW251705   4.044   5.956   9.863
15620SOL     OW51706   4.496   6.874   9.624
15620SOL    HW151707   4.441   6.949   9.603
15620SOL    HW251708   4.568   6.911   9.674
15621SOL     OW51709   5.106   5.616   9.528
15621SOL    HW151710   5.157   5.537   9.546
15621SOL    HW251711   5.020   5.584   9.503
15622SOL     OW51712   3.818   6.661   9.640
15622SOL    HW151713   3.873   6.718   9.694
15622SOL    HW251714   3.729   6.682   9.666
15623SOL     OW51715   4.629   7.261   9.678
15623SOL    HW151716   4.571   7.223   9.612
15623SOL    HW251717   4.583   7.341   9.706
15624SOL     OW51718   3.923   7.799   0.994
15624SOL    HW151719   3.886   7.849   1.067
15624SOL    HW251720   3.850   7.748   0.960
15625SOL     OW51721   3.715   7.857   0.675
15625SOL    HW151722   3.676   7.841   0.761
15625SOL    HW251723   3.667   7.801   0.615
15626SOL     OW51724   4.347   8.749   1.160
15626SOL    HW151725   4.263   8.768   1.118
15626SOL    HW251726   4.354   8.814   1.231
15627SOL     OW51727   5.303   9.009   0.689
15627SOL    HW151728   5.269   8.990   0.776
15627SOL    HW251729   5.225   9.025   0.636
15628SOL     OW51730   4.854   8.079   0.683
15628SOL    HW151731   4.864   8.162   0.636
15628SOL    HW251732   4.771   8.043   0.651
15629SOL     OW51733   5.452   8.060   0.263
15629SOL    HW151734   5.388   8.071   0.192
15629SOL    HW251735   5.399   8.032   0.338
15630SOL     OW51736   4.561   8.638   1.035
15630SOL    HW151737   4.485   8.669   1.083
15630SOL    HW251738   4.576   8.705   0.968
15631SOL     OW51739   4.541   8.193   1.799
15631SOL    HW151740   4.535   8.258   1.869
15631SOL    HW251741   4.477   8.221   1.734
15632SOL     OW51742   4.389   8.411   0.646
15632SOL    HW151743   4.460   8.420   0.710
15632SOL    HW251744   4.329   8.483   0.666
15633SOL     OW51745   4.418   8.590   1.812
15633SOL    HW151746   4.418   8.668   1.867
15633SOL    HW251747   4.355   8.610   1.742
15634SOL     OW51748   4.112   8.845   1.053
15634SOL    HW151749   4.029   8.812   1.019
15634SOL    HW251750   4.141   8.911   0.990
15635SOL     OW51751   5.147   8.978   1.352
15635SOL    HW151752   5.211   9.048   1.364
15635SOL    HW251753   5.089   8.985   1.429
15636SOL     OW51754   4.191   7.771   1.592
15636SOL    HW151755   4.214   7.861   1.572
15636SOL    HW251756   4.104   7.759   1.555
15637SOL     OW51757   5.335   7.871   0.705
15637SOL    HW151758   5.307   7.915   0.625
15637SOL    HW251759   5.300   7.925   0.776
15638SOL     OW51760   3.934   9.159   0.443
15638SOL    HW151761   3.937   9.238   0.496
15638SOL    HW251762   4.024   9.146   0.413
15639SOL     OW51763   4.849   8.769   1.652
15639SOL    HW151764   4.875   8.780   1.743
15639SOL    HW251765   4.811   8.681   1.649
15640SOL     OW51766   3.871   8.895   0.487
15640SOL    HW151767   3.884   8.990   0.487
15640SOL    HW251768   3.858   8.873   0.579
15641SOL     OW51769   3.990   8.539   0.871
15641SOL    HW151770   4.006   8.456   0.916
15641SOL    HW251771   3.944   8.593   0.935
15642SOL     OW51772   4.254   9.199   1.449
15642SOL    HW151773   4.200   9.260   1.399
15642SOL    HW251774   4.324   9.253   1.485
15643SOL     OW51775   4.247   8.404   0.204
15643SOL    HW151776   4.228   8.457   0.127
15643SOL    HW251777   4.322   8.447   0.245
15644SOL     OW51778   5.345   7.569   1.468
15644SOL    HW151779   5.285   7.599   1.401
15644SOL    HW251780   5.304   7.595   1.551
15645SOL     OW51781   3.813   8.107   0.607
15645SOL    HW151782   3.782   8.019   0.626
15645SOL    HW251783   3.804   8.155   0.689
15646SOL     OW51784   5.566   9.222   0.460
15646SOL    HW151785   5.656   9.209   0.489
15646SOL    HW251786   5.572   9.282   0.386
15647SOL     OW51787   3.621   8.948   0.064
15647SOL    HW151788   3.659   8.876   0.114
15647SOL    HW251789   3.649   9.027   0.111
15648SOL     OW51790   5.410   8.376   0.641
15648SOL    HW151791   5.503   8.356   0.631
15648SOL    HW251792   5.392   8.439   0.571
15649SOL     OW51793   5.369   8.567   0.436
15649SOL    HW151794   5.452   8.553   0.391
15649SOL    HW251795   5.379   8.651   0.480
15650SOL     OW51796   3.827   8.246   1.592
15650SOL    HW151797   3.849   8.307   1.662
15650SOL    HW251798   3.753   8.286   1.547
15651SOL     OW51799   4.364   8.824   0.746
15651SOL    HW151800   4.308   8.747   0.742
15651SOL    HW251801   4.359   8.862   0.659
15652SOL     OW51802   5.019   8.673   1.396
15652SOL    HW151803   5.079   8.631   1.334
15652SOL    HW251804   5.075   8.700   1.468
15653SOL     OW51805   4.541   7.420   0.510
15653SOL    HW151806   4.598   7.497   0.508
15653SOL    HW251807   4.453   7.456   0.514
15654SOL     OW51808   3.901   8.388   1.254
15654SOL    HW151809   3.887   8.479   1.231
15654SOL    HW251810   3.815   8.347   1.239
15655SOL     OW51811   5.233   8.467   0.209
15655SOL    HW151812   5.170   8.402   0.241
15655SOL    HW251813   5.281   8.494   0.287
15656SOL     OW51814   4.967   9.277   1.667
15656SOL    HW151815   4.944   9.347   1.606
15656SOL    HW251816   4.978   9.199   1.612
15657SOL     OW51817   4.098   7.655   1.838
15657SOL    HW151818   4.138   7.708   1.769
15657SOL    HW251819   4.008   7.687   1.844
15658SOL     OW51820   5.214   8.877   0.920
15658SOL    HW151821   5.164   8.897   0.999
15658SOL    HW251822   5.163   8.809   0.876
15659SOL     OW51823   4.281   8.102   0.211
15659SOL    HW151824   4.289   8.129   0.119
15659SOL    HW251825   4.263   8.183   0.258
15660SOL     OW51826   5.049   7.717   1.005
15660SOL    HW151827   5.020   7.755   0.922
15660SOL    HW251828   4.995   7.761   1.071
15661SOL     OW51829   5.310   9.075   0.291
15661SOL    HW151830   5.394   9.079   0.244
15661SOL    HW251831   5.244   9.070   0.222
15662SOL     OW51832   4.508   8.055   1.492
15662SOL    HW151833   4.450   8.129   1.474
15662SOL    HW251834   4.485   7.990   1.426
15663SOL     OW51835   5.107   7.904   1.727
15663SOL    HW151836   5.130   7.957   1.803
15663SOL    HW251837   5.096   7.968   1.656
15664SOL     OW51838   4.744   7.837   1.235
15664SOL    HW151839   4.798   7.916   1.228
15664SOL    HW251840   4.721   7.816   1.145
15665SOL     OW51841   4.814   8.124   0.380
15665SOL    HW151842   4.900   8.089   0.358
15665SOL    HW251843   4.754   8.050   0.370
15666SOL     OW51844   3.797   8.250   0.841
15666SOL    HW151845   3.886   8.267   0.870
15666SOL    HW251846   3.750   8.332   0.854
15667SOL     OW51847   5.418   8.036   1.851
15667SOL    HW151848   5.371   8.102   1.800
15667SOL    HW251849   5.450   7.974   1.786
15668SOL     OW51850   5.102   8.588   0.539
15668SOL    HW151851   5.184   8.572   0.492
15668SOL    HW251852   5.056   8.652   0.485
15669SOL     OW51853   4.271   7.642   0.930
15669SOL    HW151854   4.260   7.664   1.023
15669SOL    HW251855   4.274   7.727   0.886
15670SOL     OW51856   4.730   8.907   0.535
15670SOL    HW151857   4.710   8.959   0.457
15670SOL    HW251858   4.683   8.950   0.606
15671SOL     OW51859   4.072   9.252   0.853
15671SOL    HW151860   4.130   9.177   0.868
15671SOL    HW251861   4.128   9.329   0.868
15672SOL     OW51862   5.490   8.459   0.900
15672SOL    HW151863   5.428   8.430   0.833
15672SOL    HW251864   5.435   8.491   0.971
15673SOL     OW51865   4.950   9.014   1.548
15673SOL    HW151866   4.932   8.927   1.585
15673SOL    HW251867   4.867   9.041   1.509
15674SOL     OW51868   4.002   8.362   0.306
15674SOL    HW151869   4.085   8.377   0.263
15674SOL    HW251870   4.018   8.287   0.364
15675SOL     OW51871   5.216   8.183   0.654
15675SOL    HW151872   5.180   8.190   0.742
15675SOL    HW251873   5.286   8.248   0.651
15676SOL     OW51874   4.822   9.221   0.201
15676SOL    HW151875   4.765   9.191   0.271
15676SOL    HW251876   4.846   9.141   0.154
15677SOL     OW51877   3.925   7.751   1.513
15677SOL    HW151878   3.917   7.837   1.471
15677SOL    HW251879   3.842   7.739   1.560
15678SOL     OW51880   5.327   8.813   0.096
15678SOL    HW151881   5.271   8.890   0.089
15678SOL    HW251882   5.277   8.743   0.054
15679SOL     OW51883   4.202   9.156   0.369
15679SOL    HW151884   4.232   9.230   0.421
15679SOL    HW251885   4.273   9.141   0.306
15680SOL     OW51886   3.979   9.231   1.188
15680SOL    HW151887   4.017   9.144   1.203
15680SOL    HW251888   3.927   9.220   1.108
15681SOL     OW51889   4.670   9.068   0.957
15681SOL    HW151890   4.760   9.099   0.947
15681SOL    HW251891   4.622   9.112   0.887
15682SOL     OW51892   4.055   8.154   0.483
15682SOL    HW151893   4.086   8.064   0.472
15682SOL    HW251894   3.969   8.145   0.525
15683SOL     OW51895   5.262   7.682   1.709
15683SOL    HW151896   5.264   7.667   1.804
15683SOL    HW251897   5.199   7.753   1.697
15684SOL     OW51898   4.391   7.614   0.146
15684SOL    HW151899   4.466   7.671   0.165
15684SOL    HW251900   4.380   7.621   0.051
15685SOL     OW51901   4.523   7.675   1.862
15685SOL    HW151902   4.600   7.643   1.814
15685SOL    HW251903   4.496   7.753   1.813
15686SOL     OW51904   4.621   8.984   1.221
15686SOL    HW151905   4.638   9.005   1.129
15686SOL    HW251906   4.676   8.908   1.239
15687SOL     OW51907   4.629   8.823   0.835
15687SOL    HW151908   4.636   8.908   0.877
15687SOL    HW251909   4.541   8.822   0.797
15688SOL     OW51910   4.566   7.925   0.868
15688SOL    HW151911   4.597   7.936   0.779
15688SOL    HW251912   4.622   7.858   0.905
15689SOL     OW51913   4.273   7.488   0.510
15689SOL    HW151914   4.190   7.489   0.557
15689SOL    HW251915   4.277   7.573   0.466
15690SOL     OW51916   5.148   8.621   0.003
15690SOL    HW151917   5.193   8.554   0.055
15690SOL    HW251918   5.070   8.642   0.053
15691SOL     OW51919   4.728   7.622   0.517
15691SOL    HW151920   4.699   7.694   0.461
15691SOL    HW251921   4.823   7.634   0.523
15692SOL     OW51922   4.921   8.994   0.761
15692SOL    HW151923   4.931   9.065   0.697
15692SOL    HW251924   4.945   9.035   0.845
15693SOL     OW51925   4.198   8.605   0.702
15693SOL    HW151926   4.131   8.585   0.768
15693SOL    HW251927   4.151   8.603   0.619
15694SOL     OW51928   4.961   9.237   0.612
15694SOL    HW151929   5.022   9.297   0.569
15694SOL    HW251930   4.895   9.294   0.652
15695SOL     OW51931   4.667   8.161   0.079
15695SOL    HW151932   4.640   8.091   0.021
15695SOL    HW251933   4.755   8.185   0.049
15696SOL     OW51934   3.851   8.001   1.442
15696SOL    HW151935   3.844   8.002   1.346
15696SOL    HW251936   3.845   8.093   1.467
15697SOL     OW51937   4.233   7.663   1.209
15697SOL    HW151938   4.275   7.613   1.279
15697SOL    HW251939   4.140   7.647   1.220
15698SOL     OW51940   4.625   7.945   0.592
15698SOL    HW151941   4.543   7.965   0.548
15698SOL    HW251942   4.680   7.904   0.525
15699SOL     OW51943   4.783   7.534   0.771
15699SOL    HW151944   4.745   7.569   0.691
15699SOL    HW251945   4.725   7.461   0.795
15700SOL     OW51946   5.052   8.681   0.796
15700SOL    HW151947   5.057   8.609   0.859
15700SOL    HW251948   5.082   8.642   0.713
15701SOL     OW51949   5.211   7.985   0.927
15701SOL    HW151950   5.167   8.070   0.925
15701SOL    HW251951   5.243   7.977   1.017
15702SOL     OW51952   5.613   8.271   0.351
15702SOL    HW151953   5.655   8.229   0.426
15702SOL    HW251954   5.551   8.206   0.319
15703SOL     OW51955   4.264   8.866   0.182
15703SOL    HW151956   4.180   8.831   0.213
15703SOL    HW251957   4.282   8.815   0.102
15704SOL     OW51958   5.433   8.795   0.573
15704SOL    HW151959   5.501   8.747   0.621
15704SOL    HW251960   5.383   8.840   0.641
15705SOL     OW51961   5.238   8.064   0.091
15705SOL    HW151962   5.171   8.055   0.158
15705SOL    HW251963   5.194   8.039   0.010
15706SOL     OW51964   4.283   7.722   0.375
15706SOL    HW151965   4.309   7.684   0.291
15706SOL    HW251966   4.339   7.799   0.384
15707SOL     OW51967   4.766   8.776   1.357
15707SOL    HW151968   4.718   8.792   1.439
15707SOL    HW251969   4.854   8.750   1.385
15708SOL     OW51970   4.820   8.635   1.129
15708SOL    HW151971   4.803   8.681   1.211
15708SOL    HW251972   4.734   8.626   1.088
15709SOL     OW51973   5.315   8.530   1.104
15709SOL    HW151974   5.323   8.611   1.154
15709SOL    HW251975   5.221   8.512   1.103
15710SOL     OW51976   4.685   7.503   1.394
15710SOL    HW151977   4.686   7.500   1.299
15710SOL    HW251978   4.749   7.570   1.417
15711SOL     OW51979   4.649   8.492   1.689
15711SOL    HW151980   4.581   8.535   1.740
15711SOL    HW251981   4.626   8.509   1.598
15712SOL     OW51982   4.455   8.495   0.378
15712SOL    HW151983   4.430   8.457   0.462
15712SOL    HW251984   4.538   8.452   0.356
15713SOL     OW51985   4.166   8.296   1.283
15713SOL    HW151986   4.079   8.335   1.272
15713SOL    HW251987   4.149   8.202   1.287
15714SOL     OW51988   5.043   7.863   1.364
15714SOL    HW151989   5.072   7.929   1.427
15714SOL    HW251990   4.996   7.912   1.297
15715SOL     OW51991   3.835   9.026   1.403
15715SOL    HW151992   3.780   9.089   1.356
15715SOL    HW251993   3.921   9.033   1.361
15716SOL     OW51994   4.036   8.585   0.478
15716SOL    HW151995   4.043   8.652   0.410
15716SOL    HW251996   4.030   8.503   0.429
15717SOL     OW51997   4.291   7.925   0.835
15717SOL    HW151998   4.271   7.995   0.774
15717SOL    HW251999   4.386   7.926   0.844
15718SOL     OW52000   4.965   8.801   0.420
15718SOL    HW152001   5.024   8.875   0.434
15718SOL    HW252002   4.879   8.833   0.448
15719SOL     OW52003   5.020   8.894   1.125
15719SOL    HW152004   5.064   8.921   1.205
15719SOL    HW252005   4.985   8.808   1.145
15720SOL     OW52006   5.257   7.989   0.464
15720SOL    HW152007   5.239   8.064   0.521
15720SOL    HW252008   5.184   7.987   0.402
15721SOL     OW52009   4.085   8.992   1.283
15721SOL    HW152010   4.083   8.929   1.211
15721SOL    HW252011   4.175   8.991   1.313
15722SOL     OW52012   4.184   8.182   1.632
15722SOL    HW152013   4.251   8.230   1.582
15722SOL    HW252014   4.110   8.175   1.572
15723SOL     OW52015   5.269   8.202   1.685
15723SOL    HW152016   5.183   8.181   1.649
15723SOL    HW252017   5.317   8.240   1.611
15724SOL     OW52018   4.829   7.550   1.834
15724SOL    HW152019   4.834   7.642   1.808
15724SOL    HW252020   4.857   7.502   1.756
15725SOL     OW52021   4.189   7.409   1.764
15725SOL    HW152022   4.136   7.375   1.692
15725SOL    HW252023   4.151   7.494   1.784
15726SOL     OW52024   4.359   8.304   1.075
15726SOL    HW152025   4.323   8.362   1.009
15726SOL    HW252026   4.296   8.307   1.147
15727SOL     OW52027   5.085   8.225   0.892
15727SOL    HW152028   5.012   8.265   0.844
15727SOL    HW252029   5.056   8.225   0.983
15728SOL     OW52030   3.964   7.591   1.288
15728SOL    HW152031   3.955   7.646   1.366
15728SOL    HW252032   3.880   7.597   1.244
15729SOL     OW52033   3.803   8.782   1.273
15729SOL    HW152034   3.831   8.724   1.344
15729SOL    HW252035   3.799   8.868   1.313
15730SOL     OW52036   4.463   8.046   1.104
15730SOL    HW152037   4.505   8.018   1.022
15730SOL    HW252038   4.434   8.135   1.087
15731SOL     OW52039   5.426   8.374   1.855
15731SOL    HW152040   5.367   8.326   1.797
15731SOL    HW252041   5.368   8.416   1.919
15732SOL     OW52042   4.019   7.487   0.624
15732SOL    HW152043   3.993   7.579   0.636
15732SOL    HW252044   4.035   7.455   0.713
15733SOL     OW52045   4.672   9.029   1.725
15733SOL    HW152046   4.591   9.075   1.743
15733SOL    HW252047   4.687   9.040   1.631
15734SOL     OW52048   4.078   8.227   1.889
15734SOL    HW152049   4.005   8.283   1.860
15734SOL    HW252050   4.126   8.207   1.809
15735SOL     OW52051   4.930   8.224   9.999
15735SOL    HW152052   5.021   8.230   0.028
15735SOL    HW252053   4.930   8.156   9.932
15736SOL     OW52054   4.064   8.264   0.922
15736SOL    HW152055   4.118   8.248   0.845
15736SOL    HW252056   4.073   8.185   0.975
15737SOL     OW52057   4.106   8.002   1.023
15737SOL    HW152058   4.043   7.932   1.007
15737SOL    HW252059   4.180   7.983   0.966
15738SOL     OW52060   4.850   7.809   1.750
15738SOL    HW152061   4.803   7.883   1.790
15738SOL    HW252062   4.939   7.841   1.739
15739SOL     OW52063   4.892   7.664   1.501
15739SOL    HW152064   4.866   7.723   1.572
15739SOL    HW252065   4.935   7.721   1.438
15740SOL     OW52066   3.729   8.761   0.237
15740SOL    HW152067   3.736   8.788   0.329
15740SOL    HW252068   3.734   8.666   0.240
15741SOL     OW52069   3.824   9.194   0.957
15741SOL    HW152070   3.785   9.123   0.906
15741SOL    HW252071   3.903   9.218   0.908
15742SOL     OW52072   4.249   9.037   0.899
15742SOL    HW152073   4.316   9.101   0.923
15742SOL    HW252074   4.297   8.972   0.847
15743SOL     OW52075   3.799   7.982   1.163
15743SOL    HW152076   3.808   8.055   1.101
15743SOL    HW252077   3.705   7.971   1.174
15744SOL     OW52078   3.836   8.008   1.730
15744SOL    HW152079   3.843   7.961   1.647
15744SOL    HW252080   3.837   8.100   1.705
15745SOL     OW52081   4.444   7.942   0.376
15745SOL    HW152082   4.511   7.899   0.322
15745SOL    HW252083   4.399   8.001   0.315
15746SOL     OW52084   5.347   8.007   1.180
15746SOL    HW152085   5.324   8.098   1.200
15746SOL    HW252086   5.436   8.012   1.145
15747SOL     OW52087   4.385   7.884   1.306
15747SOL    HW152088   4.347   7.808   1.263
15747SOL    HW252089   4.424   7.935   1.234
15748SOL     OW52090   4.705   9.100   1.458
15748SOL    HW152091   4.673   9.062   1.376
15748SOL    HW252092   4.693   9.194   1.446
15749SOL     OW52093   3.883   8.629   1.490
15749SOL    HW152094   3.939   8.687   1.541
15749SOL    HW252095   3.936   8.549   1.480
15750SOL     OW52096   5.050   8.484   1.124
15750SOL    HW152097   5.030   8.391   1.133
15750SOL    HW252098   4.965   8.528   1.128
15751SOL     OW52099   5.048   8.295   0.312
15751SOL    HW152100   5.062   8.200   0.303
15751SOL    HW252101   4.954   8.304   0.328
15752SOL     OW52102   5.419   9.238   1.145
15752SOL    HW152103   5.493   9.179   1.129
15752SOL    HW252104   5.386   9.211   1.231
15753SOL     OW52105   4.945   9.131   1.005
15753SOL    HW152106   5.028   9.178   0.993
15753SOL    HW252107   4.968   9.055   1.057
15754SOL     OW52108   3.857   8.743   1.007
15754SOL    HW152109   3.830   8.758   1.098
15754SOL    HW252110   3.796   8.795   0.955
15755SOL     OW52111   4.446   9.172   1.731
15755SOL    HW152112   4.379   9.196   1.795
15755SOL    HW252113   4.448   9.245   1.670
15756SOL     OW52114   5.108   9.033   0.485
15756SOL    HW152115   5.165   9.070   0.417
15756SOL    HW252116   5.054   9.107   0.513
15757SOL     OW52117   3.948   9.199   1.823
15757SOL    HW152118   3.885   9.140   1.863
15757SOL    HW252119   3.962   9.267   1.889
15758SOL     OW52120   4.984   8.357   0.640
15758SOL    HW152121   5.045   8.286   0.619
15758SOL    HW252122   5.019   8.433   0.593
15759SOL     OW52123   4.460   8.744   1.487
15759SOL    HW152124   4.390   8.733   1.551
15759SOL    HW252125   4.436   8.824   1.439
15760SOL     OW52126   4.409   9.092   0.202
15760SOL    HW152127   4.440   9.113   0.114
15760SOL    HW252128   4.362   9.009   0.192
15761SOL     OW52129   5.318   9.192   1.397
15761SOL    HW152130   5.374   9.159   1.468
15761SOL    HW252131   5.305   9.284   1.418
15762SOL     OW52132   5.564   7.620   0.916
15762SOL    HW152133   5.593   7.598   0.827
15762SOL    HW252134   5.470   7.633   0.908
15763SOL     OW52135   3.967   7.746   0.711
15763SOL    HW152136   3.883   7.788   0.691
15763SOL    HW252137   3.981   7.764   0.804
15764SOL     OW52138   4.868   8.965   0.098
15764SOL    HW152139   4.893   8.878   0.131
15764SOL    HW252140   4.773   8.960   0.089
15765SOL     OW52141   4.567   8.503   1.420
15765SOL    HW152142   4.595   8.513   1.329
15765SOL    HW252143   4.526   8.587   1.442
15766SOL     OW52144   4.697   8.379   0.316
15766SOL    HW152145   4.717   8.396   0.224
15766SOL    HW252146   4.718   8.286   0.328
15767SOL     OW52147   5.143   9.025   0.069
15767SOL    HW152148   5.049   9.020   0.088
15767SOL    HW252149   5.148   9.057   9.979
15768SOL     OW52150   5.289   8.755   1.261
15768SOL    HW152151   5.379   8.788   1.268
15768SOL    HW252152   5.236   8.820   1.306
15769SOL     OW52153   4.789   8.550   0.720
15769SOL    HW152154   4.711   8.508   0.758
15769SOL    HW252155   4.843   8.478   0.689
15770SOL     OW52156   4.716   7.707   0.982
15770SOL    HW152157   4.755   7.668   0.904
15770SOL    HW252158   4.711   7.634   1.045
15771SOL     OW52159   4.370   8.946   0.500
15771SOL    HW152160   4.409   8.891   0.432
15771SOL    HW252161   4.300   8.994   0.456
15772SOL     OW52162   5.478   7.888   1.396
15772SOL    HW152163   5.553   7.947   1.387
15772SOL    HW252164   5.413   7.922   1.334
15773SOL     OW52165   4.015   8.783   0.284
15773SOL    HW152166   3.945   8.777   0.218
15773SOL    HW252167   3.975   8.833   0.356
15774SOL     OW52168   3.870   8.393   1.821
15774SOL    HW152169   3.785   8.398   1.865
15774SOL    HW252170   3.911   8.478   1.836
15775SOL     OW52171   4.375   7.594   1.451
15775SOL    HW152172   4.465   7.625   1.440
15775SOL    HW252173   4.332   7.661   1.503
15776SOL     OW52174   3.730   7.800   0.044
15776SOL    HW152175   3.640   7.830   0.029
15776SOL    HW252176   3.785   7.876   0.022
15777SOL     OW52177   3.781   7.607   0.243
15777SOL    HW152178   3.761   7.663   0.169
15777SOL    HW252179   3.836   7.660   0.300
15778SOL     OW52180   4.923   8.698   0.140
15778SOL    HW152181   4.870   8.620   0.124
15778SOL    HW252182   4.932   8.702   0.235
15779SOL     OW52183   4.379   8.296   1.460
15779SOL    HW152184   4.433   8.375   1.450
15779SOL    HW252185   4.310   8.306   1.395
15780SOL     OW52186   5.198   9.236   0.971
15780SOL    HW152187   5.207   9.326   0.941
15780SOL    HW252188   5.269   9.225   1.035
15781SOL     OW52189   4.491   7.918   1.738
15781SOL    HW152190   4.492   8.000   1.787
15781SOL    HW252191   4.495   7.943   1.646
15782SOL     OW52192   5.203   8.739   1.596
15782SOL    HW152193   5.189   8.713   1.687
15782SOL    HW252194   5.274   8.804   1.600
15783SOL     OW52195   5.402   8.288   1.209
15783SOL    HW152196   5.471   8.278   1.144
15783SOL    HW252197   5.357   8.369   1.183
15784SOL     OW52198   4.998   7.692   0.546
15784SOL    HW152199   5.002   7.745   0.467
15784SOL    HW252200   4.997   7.756   0.618
15785SOL     OW52201   4.227   8.188   0.705
15785SOL    HW152202   4.291   8.254   0.680
15785SOL    HW252203   4.173   8.176   0.627
15786SOL     OW52204   5.492   7.832   1.672
15786SOL    HW152205   5.483   7.871   1.585
15786SOL    HW252206   5.414   7.777   1.682
15787SOL     OW52207   5.420   8.322   1.485
15787SOL    HW152208   5.416   8.417   1.489
15787SOL    HW252209   5.409   8.301   1.392
15788SOL     OW52210   4.606   8.893   0.092
15788SOL    HW152211   4.556   8.848   0.160
15788SOL    HW252212   4.556   8.877   0.012
15789SOL     OW52213   4.406   9.263   0.963
15789SOL    HW152214   4.369   9.326   0.901
15789SOL    HW252215   4.402   9.307   1.048
15790SOL     OW52216   4.573   8.430   0.857
15790SOL    HW152217   4.572   8.347   0.905
15790SOL    HW252218   4.565   8.497   0.924
15791SOL     OW52219   4.798   8.464   0.063
15791SOL    HW152220   4.741   8.488   9.989
15791SOL    HW252221   4.842   8.384   0.035
15792SOL     OW52222   5.566   9.021   0.786
15792SOL    HW152223   5.476   9.044   0.761
15792SOL    HW252224   5.556   8.970   0.866
15793SOL     OW52225   4.027   8.618   1.859
15793SOL    HW152226   4.025   8.663   1.775
15793SOL    HW252227   4.101   8.656   1.906
15794SOL     OW52228   3.837   8.659   0.665
15794SOL    HW152229   3.874   8.615   0.742
15794SOL    HW252230   3.896   8.637   0.594
15795SOL     OW52231   5.557   7.567   1.196
15795SOL    HW152232   5.529   7.476   1.185
15795SOL    HW252233   5.565   7.600   1.107
15796SOL     OW52234   4.103   7.887   0.509
15796SOL    HW152235   4.162   7.827   0.463
15796SOL    HW252236   4.068   7.835   0.581
15797SOL     OW52237   5.494   8.879   1.007
15797SOL    HW152238   5.399   8.870   0.997
15797SOL    HW252239   5.509   8.875   1.102
15798SOL     OW52240   4.145   8.024   1.296
15798SOL    HW152241   4.227   7.976   1.305
15798SOL    HW252242   4.121   8.013   1.204
15799SOL     OW52243   4.552   9.074   0.678
15799SOL    HW152244   4.552   9.164   0.645
15799SOL    HW252245   4.483   9.030   0.628
15800SOL     OW52246   5.201   7.666   1.261
15800SOL    HW152247   5.176   7.664   1.169
15800SOL    HW252248   5.151   7.740   1.298
15801SOL     OW52249   4.719   7.452   1.116
15801SOL    HW152250   4.682   7.404   1.042
15801SOL    HW252251   4.806   7.413   1.128
15802SOL     OW52252   4.523   8.764   0.345
15802SOL    HW152253   4.484   8.677   0.341
15802SOL    HW252254   4.599   8.754   0.402
15803SOL     OW52255   4.371   8.971   1.338
15803SOL    HW152256   4.347   9.055   1.377
15803SOL    HW252257   4.453   8.989   1.293
15804SOL     OW52258   5.092   7.451   0.319
15804SOL    HW152259   5.164   7.448   0.256
15804SOL    HW252260   5.013   7.435   0.267
15805SOL     OW52261   5.010   7.869   0.769
15805SOL    HW152262   4.950   7.938   0.741
15805SOL    HW252263   5.078   7.914   0.818
15806SOL     OW52264   5.292   7.657   0.880
15806SOL    HW152265   5.216   7.687   0.930
15806SOL    HW252266   5.306   7.725   0.815
15807SOL     OW52267   3.749   8.481   0.302
15807SOL    HW152268   3.844   8.467   0.296
15807SOL    HW252269   3.716   8.401   0.344
15808SOL     OW52270   4.632   9.113   0.369
15808SOL    HW152271   4.559   9.096   0.309
15808SOL    HW252272   4.600   9.182   0.427
15809SOL     OW52273   3.926   7.956   1.990
15809SOL    HW152274   3.847   7.987   2.036
15809SOL    HW252275   3.921   8.000   1.904
15810SOL     OW52276   3.960   7.704   2.884
15810SOL    HW152277   3.976   7.795   2.910
15810SOL    HW252278   3.865   7.698   2.876
15811SOL     OW52279   3.697   7.765   2.563
15811SOL    HW152280   3.620   7.823   2.563
15811SOL    HW252281   3.679   7.702   2.493
15812SOL     OW52282   4.291   8.738   3.039
15812SOL    HW152283   4.214   8.776   2.996
15812SOL    HW252284   4.327   8.810   3.091
15813SOL     OW52285   5.285   8.937   2.560
15813SOL    HW152286   5.223   8.938   2.632
15813SOL    HW252287   5.242   8.985   2.490
15814SOL     OW52288   4.823   8.197   2.568
15814SOL    HW152289   4.876   8.276   2.555
15814SOL    HW252290   4.781   8.211   2.654
15815SOL     OW52291   5.481   8.028   2.115
15815SOL    HW152292   5.454   8.041   2.024
15815SOL    HW252293   5.568   7.988   2.109
15816SOL     OW52294   4.466   8.580   2.909
15816SOL    HW152295   4.393   8.627   2.951
15816SOL    HW252296   4.514   8.648   2.862
15817SOL     OW52297   4.666   8.170   3.679
15817SOL    HW152298   4.660   8.243   3.740
15817SOL    HW252299   4.732   8.197   3.615
15818SOL     OW52300   4.410   8.432   2.514
15818SOL    HW152301   4.486   8.446   2.571
15818SOL    HW252302   4.342   8.489   2.551
15819SOL     OW52303   4.486   8.585   3.664
15819SOL    HW152304   4.545   8.638   3.718
15819SOL    HW252305   4.434   8.649   3.616
15820SOL     OW52306   4.085   8.882   2.927
15820SOL    HW152307   4.003   8.860   2.883
15820SOL    HW252308   4.129   8.943   2.867
15821SOL     OW52309   5.188   8.958   3.229
15821SOL    HW152310   5.238   9.040   3.238
15821SOL    HW252311   5.116   8.967   3.291
15822SOL     OW52312   4.185   7.808   3.332
15822SOL    HW152313   4.254   7.744   3.347
15822SOL    HW252314   4.105   7.765   3.362
15823SOL     OW52315   5.343   7.895   2.597
15823SOL    HW152316   5.321   7.941   2.515
15823SOL    HW252317   5.305   7.949   2.666
15824SOL     OW52318   3.964   9.146   2.319
15824SOL    HW152319   3.985   9.223   2.372
15824SOL    HW252320   4.045   9.128   2.271
15825SOL     OW52321   4.858   8.778   3.545
15825SOL    HW152322   4.896   8.766   3.632
15825SOL    HW252323   4.835   8.689   3.517
15826SOL     OW52324   3.885   8.923   2.457
15826SOL    HW152325   3.914   8.999   2.408
15826SOL    HW252326   3.837   8.960   2.532
15827SOL     OW52327   3.942   8.533   2.758
15827SOL    HW152328   3.856   8.494   2.741
15827SOL    HW252329   3.922   8.614   2.805
15828SOL     OW52330   4.347   9.178   3.305
15828SOL    HW152331   4.254   9.183   3.325
15828SOL    HW252332   4.377   9.269   3.307
15829SOL     OW52333   4.441   8.379   1.981
15829SOL    HW152334   4.429   8.450   1.918
15829SOL    HW252335   4.451   8.424   2.065
15830SOL     OW52336   5.322   7.508   3.397
15830SOL    HW152337   5.363   7.569   3.336
15830SOL    HW252338   5.294   7.563   3.470
15831SOL     OW52339   3.855   8.062   2.505
15831SOL    HW152340   3.778   8.049   2.449
15831SOL    HW252341   3.819   8.103   2.584
15832SOL     OW52342   5.574   9.194   2.192
15832SOL    HW152343   5.659   9.180   2.234
15832SOL    HW252344   5.580   9.281   2.153
15833SOL     OW52345   3.789   9.030   1.958
15833SOL    HW152346   3.774   8.939   1.984
15833SOL    HW252347   3.759   9.081   2.033
15834SOL     OW52348   5.379   8.302   2.453
15834SOL    HW152349   5.459   8.327   2.499
15834SOL    HW252350   5.362   8.375   2.393
15835SOL     OW52351   5.357   8.543   2.307
15835SOL    HW152352   5.445   8.543   2.270
15835SOL    HW252353   5.363   8.600   2.384
15836SOL     OW52354   3.827   8.230   3.428
15836SOL    HW152355   3.916   8.262   3.418
15836SOL    HW252356   3.773   8.296   3.385
15837SOL     OW52357   4.348   8.807   2.629
15837SOL    HW152358   4.287   8.733   2.621
15837SOL    HW252359   4.346   8.851   2.544
15838SOL     OW52360   4.974   8.667   3.262
15838SOL    HW152361   4.984   8.587   3.210
15838SOL    HW252362   5.036   8.656   3.335
15839SOL     OW52363   4.549   7.517   2.411
15839SOL    HW152364   4.578   7.596   2.364
15839SOL    HW252365   4.454   7.519   2.405
15840SOL     OW52366   3.903   8.392   3.179
15840SOL    HW152367   3.980   8.365   3.130
15840SOL    HW252368   3.831   8.387   3.116
15841SOL     OW52369   5.246   8.467   2.055
15841SOL    HW152370   5.178   8.412   2.093
15841SOL    HW252371   5.291   8.506   2.130
15842SOL     OW52372   4.897   9.271   3.515
15842SOL    HW152373   4.907   9.342   3.452
15842SOL    HW252374   4.943   9.197   3.476
15843SOL     OW52375   4.110   7.698   3.689
15843SOL    HW152376   4.158   7.778   3.710
15843SOL    HW252377   4.019   7.725   3.681
15844SOL     OW52378   5.162   8.864   2.801
15844SOL    HW152379   5.103   8.880   2.874
15844SOL    HW252380   5.152   8.770   2.783
15845SOL     OW52381   5.441   9.203   2.435
15845SOL    HW152382   5.477   9.184   2.348
15845SOL    HW252383   5.346   9.193   2.424
15846SOL     OW52384   4.339   8.165   2.121
15846SOL    HW152385   4.391   8.219   2.061
15846SOL    HW252386   4.265   8.221   2.144
15847SOL     OW52387   5.061   7.782   2.877
15847SOL    HW152388   4.969   7.770   2.858
15847SOL    HW252389   5.069   7.763   2.971
15848SOL     OW52390   5.301   9.117   2.108
15848SOL    HW152391   5.391   9.145   2.121
15848SOL    HW252392   5.298   9.087   2.017
15849SOL     OW52393   4.483   8.058   3.322
15849SOL    HW152394   4.431   8.136   3.305
15849SOL    HW252395   4.453   7.995   3.257
15850SOL     OW52396   5.148   7.908   3.510
15850SOL    HW152397   5.129   7.996   3.542
15850SOL    HW252398   5.157   7.919   3.415
15851SOL     OW52399   4.712   7.880   3.113
15851SOL    HW152400   4.617   7.866   3.116
15851SOL    HW252401   4.739   7.842   3.029
15852SOL     OW52402   4.765   8.119   2.306
15852SOL    HW152403   4.774   8.151   2.395
15852SOL    HW252404   4.674   8.090   2.300
15853SOL     OW52405   3.783   8.179   2.743
15853SOL    HW152406   3.870   8.206   2.775
15853SOL    HW252407   3.735   8.261   2.733
15854SOL     OW52408   4.622   7.847   2.062
15854SOL    HW152409   4.672   7.911   2.011
15854SOL    HW252410   4.577   7.794   1.996
15855SOL     OW52411   5.433   8.030   3.701
15855SOL    HW152412   5.390   8.105   3.661
15855SOL    HW252413   5.445   7.967   3.630
15856SOL     OW52414   5.082   8.591   2.363
15856SOL    HW152415   5.169   8.579   2.324
15856SOL    HW252416   5.052   8.675   2.329
15857SOL     OW52417   4.682   8.934   2.367
15857SOL    HW152418   4.651   8.952   2.279
15857SOL    HW252419   4.635   8.997   2.422
15858SOL     OW52420   4.085   9.267   2.745
15858SOL    HW152421   4.147   9.193   2.750
15858SOL    HW252422   4.137   9.343   2.771
15859SOL     OW52423   5.496   8.446   2.727
15859SOL    HW152424   5.499   8.528   2.678
15859SOL    HW252425   5.447   8.467   2.807
15860SOL     OW52426   4.957   8.997   3.384
15860SOL    HW152427   4.935   8.918   3.433
15860SOL    HW252428   4.873   9.032   3.356
15861SOL     OW52429   4.126   8.348   2.131
15861SOL    HW152430   4.170   8.426   2.099
15861SOL    HW252431   4.096   8.303   2.052
15862SOL     OW52432   5.180   8.177   2.588
15862SOL    HW152433   5.212   8.146   2.672
15862SOL    HW252434   5.256   8.221   2.548
15863SOL     OW52435   4.117   8.594   3.620
15863SOL    HW152436   4.152   8.637   3.542
15863SOL    HW252437   4.074   8.664   3.669
15864SOL     OW52438   4.866   9.093   2.128
15864SOL    HW152439   4.771   9.097   2.144
15864SOL    HW252440   4.874   9.085   2.033
15865SOL     OW52441   3.918   7.714   3.372
15865SOL    HW152442   3.901   7.805   3.349
15865SOL    HW252443   3.842   7.688   3.424
15866SOL     OW52444   5.356   8.805   1.958
15866SOL    HW152445   5.344   8.889   1.913
15866SOL    HW252446   5.289   8.748   1.921
15867SOL     OW52447   4.217   9.111   2.215
15867SOL    HW152448   4.248   9.200   2.230
15867SOL    HW252449   4.266   9.080   2.139
15868SOL     OW52450   5.090   7.560   2.299
15868SOL    HW152451   5.070   7.544   2.207
15868SOL    HW252452   5.168   7.615   2.297
15869SOL     OW52453   3.968   9.238   3.109
15869SOL    HW152454   3.983   9.333   3.106
15869SOL    HW252455   3.941   9.215   3.020
15870SOL     OW52456   4.669   9.037   2.768
15870SOL    HW152457   4.752   9.085   2.762
15870SOL    HW252458   4.617   9.072   2.696
15871SOL     OW52459   4.067   8.171   2.343
15871SOL    HW152460   4.085   8.228   2.268
15871SOL    HW252461   3.974   8.186   2.362
15872SOL     OW52462   5.261   7.679   3.613
15872SOL    HW152463   5.238   7.681   3.706
15872SOL    HW252464   5.222   7.758   3.577
15873SOL     OW52465   4.352   7.487   1.976
15873SOL    HW152466   4.416   7.546   1.936
15873SOL    HW252467   4.297   7.458   1.902
15874SOL     OW52468   4.487   7.680   3.640
15874SOL    HW152469   4.579   7.656   3.639
15874SOL    HW252470   4.486   7.775   3.630
15875SOL     OW52471   4.653   9.028   3.045
15875SOL    HW152472   4.650   9.028   2.949
15875SOL    HW252473   4.703   8.949   3.067
15876SOL     OW52474   4.589   8.777   2.763
15876SOL    HW152475   4.622   8.866   2.767
15876SOL    HW252476   4.509   8.783   2.710
15877SOL     OW52477   4.653   7.957   2.781
15877SOL    HW152478   4.632   7.950   2.688
15877SOL    HW252479   4.705   7.878   2.800
15878SOL     OW52480   4.278   7.516   2.370
15878SOL    HW152481   4.195   7.530   2.416
15878SOL    HW252482   4.276   7.579   2.297
15879SOL     OW52483   5.144   8.657   1.865
15879SOL    HW152484   5.160   8.584   1.925
15879SOL    HW252485   5.059   8.693   1.893
15880SOL     OW52486   4.030   7.494   2.076
15880SOL    HW152487   4.079   7.562   2.031
15880SOL    HW252488   3.989   7.444   2.006
15881SOL     OW52489   4.711   7.664   2.244
15881SOL    HW152490   4.678   7.727   2.179
15881SOL    HW252491   4.782   7.710   2.288
15882SOL     OW52492   4.933   8.997   2.602
15882SOL    HW152493   4.945   9.078   2.551
15882SOL    HW252494   4.948   9.024   2.692
15883SOL     OW52495   4.183   8.575   2.604
15883SOL    HW152496   4.109   8.565   2.663
15883SOL    HW252497   4.146   8.558   2.517
15884SOL     OW52498   4.964   9.244   2.490
15884SOL    HW152499   5.019   9.306   2.442
15884SOL    HW252500   4.888   9.296   2.518
15885SOL     OW52501   4.748   8.031   1.896
15885SOL    HW152502   4.680   8.090   1.863
15885SOL    HW252503   4.822   8.088   1.917
15886SOL     OW52504   3.891   7.981   3.328
15886SOL    HW152505   3.956   8.010   3.264
15886SOL    HW252506   3.840   8.059   3.348
15887SOL     OW52507   4.254   7.622   2.991
15887SOL    HW152508   4.193   7.602   3.062
15887SOL    HW252509   4.203   7.675   2.929
15888SOL     OW52510   4.611   7.904   2.512
15888SOL    HW152511   4.549   7.944   2.451
15888SOL    HW252512   4.690   7.890   2.461
15889SOL     OW52513   4.737   7.532   2.622
15889SOL    HW152514   4.667   7.549   2.559
15889SOL    HW252515   4.705   7.460   2.676
15890SOL     OW52516   5.177   8.593   2.720
15890SOL    HW152517   5.113   8.539   2.674
15890SOL    HW252518   5.241   8.617   2.653
15891SOL     OW52519   5.209   8.017   2.818
15891SOL    HW152520   5.151   7.941   2.825
15891SOL    HW252521   5.225   8.043   2.909
15892SOL     OW52522   5.649   8.238   2.203
15892SOL    HW152523   5.675   8.193   2.284
15892SOL    HW252524   5.573   8.190   2.172
15893SOL     OW52525   5.380   8.682   2.546
15893SOL    HW152526   5.476   8.687   2.541
15893SOL    HW252527   5.351   8.773   2.548
15894SOL     OW52528   5.154   7.992   1.993
15894SOL    HW152529   5.097   7.987   2.070
15894SOL    HW252530   5.230   8.042   2.023
15895SOL     OW52531   4.295   7.688   2.162
15895SOL    HW152532   4.315   7.632   2.087
15895SOL    HW252533   4.262   7.769   2.124
15896SOL     OW52534   5.433   8.640   3.470
15896SOL    HW152535   5.522   8.646   3.436
15896SOL    HW252536   5.435   8.691   3.551
15897SOL     OW52537   4.764   8.794   3.152
15897SOL    HW152538   4.688   8.778   3.207
15897SOL    HW252539   4.837   8.755   3.200
15898SOL     OW52540   5.398   9.087   3.515
15898SOL    HW152541   5.347   9.116   3.438
15898SOL    HW252542   5.332   9.072   3.582
15899SOL     OW52543   4.787   8.639   2.921
15899SOL    HW152544   4.773   8.697   2.995
15899SOL    HW252545   4.740   8.680   2.848
15900SOL     OW52546   5.332   8.524   2.943
15900SOL    HW152547   5.334   8.601   3.000
15900SOL    HW252548   5.264   8.542   2.879
15901SOL     OW52549   4.660   7.547   3.218
15901SOL    HW152550   4.684   7.531   3.126
15901SOL    HW252551   4.733   7.598   3.253
15902SOL     OW52552   4.770   8.507   3.548
15902SOL    HW152553   4.674   8.504   3.542
15902SOL    HW252554   4.799   8.422   3.515
15903SOL     OW52555   4.459   8.484   2.237
15903SOL    HW152556   4.433   8.475   2.328
15903SOL    HW252557   4.552   8.459   2.236
15904SOL     OW52558   4.151   8.289   3.088
15904SOL    HW152559   4.203   8.332   3.156
15904SOL    HW252560   4.141   8.199   3.119
15905SOL     OW52561   3.786   9.046   3.202
15905SOL    HW152562   3.712   9.084   3.155
15905SOL    HW252563   3.861   9.101   3.177
15906SOL     OW52564   4.068   8.518   2.360
15906SOL    HW152565   4.031   8.598   2.323
15906SOL    HW252566   4.088   8.463   2.285
15907SOL     OW52567   4.217   8.018   2.706
15907SOL    HW152568   4.259   8.082   2.649
15907SOL    HW252569   4.277   8.008   2.780
15908SOL     OW52570   4.988   8.854   2.306
15908SOL    HW152571   5.057   8.919   2.321
15908SOL    HW252572   4.939   8.888   2.232
15909SOL     OW52573   5.005   8.917   3.024
15909SOL    HW152574   5.072   8.931   3.091
15909SOL    HW252575   4.935   8.870   3.069
15910SOL     OW52576   5.316   8.012   2.341
15910SOL    HW152577   5.278   8.099   2.357
15910SOL    HW252578   5.376   8.026   2.268
15911SOL     OW52579   4.086   8.933   3.197
15911SOL    HW152580   4.081   8.916   3.103
15911SOL    HW252581   4.111   9.025   3.204
15912SOL     OW52582   4.117   8.223   3.445
15912SOL    HW152583   4.185   8.268   3.394
15912SOL    HW252584   4.132   8.130   3.429
15913SOL     OW52585   5.304   8.237   3.574
15913SOL    HW152586   5.215   8.217   3.545
15913SOL    HW252587   5.344   8.280   3.499
15914SOL     OW52588   4.748   7.601   3.642
15914SOL    HW152589   4.794   7.683   3.622
15914SOL    HW252590   4.801   7.533   3.600
15915SOL     OW52591   4.228   7.451   3.614
15915SOL    HW152592   4.173   7.410   3.547
15915SOL    HW252593   4.194   7.540   3.621
15916SOL     OW52594   4.384   8.310   2.925
15916SOL    HW152595   4.412   8.399   2.905
15916SOL    HW252596   4.298   8.320   2.965
15917SOL     OW52597   5.096   8.280   2.930
15917SOL    HW152598   5.091   8.240   2.843
15917SOL    HW252599   5.136   8.213   2.986
15918SOL     OW52600   4.976   7.976   2.196
15918SOL    HW152601   4.953   7.901   2.251
15918SOL    HW252602   4.912   8.043   2.219
15919SOL     OW52603   4.025   7.589   3.146
15919SOL    HW152604   3.987   7.625   3.226
15919SOL    HW252605   3.972   7.625   3.075
15920SOL     OW52606   3.784   8.772   3.159
15920SOL    HW152607   3.843   8.729   3.220
15920SOL    HW252608   3.797   8.866   3.174
15921SOL     OW52609   4.417   8.039   2.902
15921SOL    HW152610   4.498   8.022   2.855
15921SOL    HW252611   4.412   8.134   2.907
15922SOL     OW52612   5.475   8.407   3.731
15922SOL    HW152613   5.420   8.351   3.676
15922SOL    HW252614   5.416   8.437   3.801
15923SOL     OW52615   4.037   7.546   2.497
15923SOL    HW152616   4.014   7.637   2.517
15923SOL    HW252617   4.039   7.503   2.582
15924SOL     OW52618   5.293   7.744   2.270
15924SOL    HW152619   5.379   7.720   2.303
15924SOL    HW252620   5.284   7.837   2.293
15925SOL     OW52621   4.721   8.225   2.828
15925SOL    HW152622   4.725   8.247   2.921
15925SOL    HW252623   4.700   8.131   2.826
15926SOL     OW52624   4.688   8.993   3.581
15926SOL    HW152625   4.686   9.043   3.499
15926SOL    HW252626   4.733   8.912   3.557
15927SOL     OW52627   4.036   8.343   3.692
15927SOL    HW152628   4.080   8.428   3.680
15927SOL    HW252629   4.066   8.290   3.618
15928SOL     OW52630   5.233   7.725   1.990
15928SOL    HW152631   5.206   7.815   1.970
15928SOL    HW252632   5.266   7.729   2.080
15929SOL     OW52633   4.977   8.197   1.932
15929SOL    HW152634   5.043   8.130   1.951
15929SOL    HW252635   4.977   8.204   1.836
15930SOL     OW52636   4.023   8.270   2.837
15930SOL    HW152637   4.019   8.358   2.800
15930SOL    HW252638   4.075   8.280   2.917
15931SOL     OW52639   4.028   7.965   2.932
15931SOL    HW152640   3.936   7.991   2.938
15931SOL    HW252641   4.063   8.019   2.861
15932SOL     OW52642   4.892   7.820   3.553
15932SOL    HW152643   4.852   7.871   3.624
15932SOL    HW252644   4.983   7.849   3.551
15933SOL     OW52645   4.894   7.653   3.324
15933SOL    HW152646   4.896   7.723   3.391
15933SOL    HW252647   4.964   7.677   3.263
15934SOL     OW52648   3.726   8.783   2.065
15934SOL    HW152649   3.636   8.807   2.042
15934SOL    HW252650   3.723   8.689   2.081
15935SOL     OW52651   3.856   9.169   2.857
15935SOL    HW152652   3.814   9.120   2.786
15935SOL    HW252653   3.929   9.215   2.816
15936SOL     OW52654   4.253   9.040   2.772
15936SOL    HW152655   4.324   9.102   2.789
15936SOL    HW252656   4.294   8.971   2.719
15937SOL     OW52657   4.728   8.308   3.107
15937SOL    HW152658   4.804   8.365   3.097
15937SOL    HW252659   4.655   8.368   3.126
15938SOL     OW52660   3.759   7.996   2.951
15938SOL    HW152661   3.739   8.053   2.877
15938SOL    HW252662   3.676   7.991   3.000
15939SOL     OW52663   3.903   8.021   3.608
15939SOL    HW152664   3.922   7.984   3.522
15939SOL    HW252665   3.863   8.106   3.590
15940SOL     OW52666   4.515   8.005   2.267
15940SOL    HW152667   4.541   7.949   2.194
15940SOL    HW252668   4.448   8.063   2.231
15941SOL     OW52669   5.364   7.857   3.043
15941SOL    HW152670   5.309   7.932   3.067
15941SOL    HW252671   5.441   7.896   3.002
15942SOL     OW52672   3.945   9.075   3.591
15942SOL    HW152673   3.883   9.137   3.629
15942SOL    HW252674   4.031   9.107   3.620
15943SOL     OW52675   4.435   7.865   3.111
15943SOL    HW152676   4.378   7.790   3.093
15943SOL    HW252677   4.418   7.926   3.039
15944SOL     OW52678   4.705   9.106   3.318
15944SOL    HW152679   4.675   9.078   3.231
15944SOL    HW252680   4.692   9.201   3.318
15945SOL     OW52681   4.184   7.932   2.091
15945SOL    HW152682   4.232   8.013   2.076
15945SOL    HW252683   4.099   7.946   2.048
15946SOL     OW52684   3.898   8.595   3.368
15946SOL    HW152685   3.893   8.552   3.453
15946SOL    HW252686   3.900   8.524   3.304
15947SOL     OW52687   4.946   8.466   3.066
15947SOL    HW152688   5.008   8.414   3.014
15947SOL    HW252689   4.907   8.526   3.003
15948SOL     OW52690   5.039   8.327   2.169
15948SOL    HW152691   4.966   8.379   2.203
15948SOL    HW252692   5.004   8.284   2.091
15949SOL     OW52693   5.533   9.157   3.025
15949SOL    HW152694   5.592   9.188   2.957
15949SOL    HW252695   5.481   9.089   2.983
15950SOL     OW52696   4.936   9.129   2.854
15950SOL    HW152697   5.011   9.188   2.847
15950SOL    HW252698   4.964   9.063   2.918
15951SOL     OW52699   3.830   8.760   2.878
15951SOL    HW152700   3.812   8.759   2.972
15951SOL    HW252701   3.758   8.811   2.840
15952SOL     OW52702   4.369   9.077   3.608
15952SOL    HW152703   4.306   9.149   3.604
15952SOL    HW252704   4.444   9.108   3.557
15953SOL     OW52705   5.540   7.629   2.352
15953SOL    HW152706   5.578   7.628   2.264
15953SOL    HW252707   5.507   7.540   2.365
15954SOL     OW52708   5.165   9.069   2.347
15954SOL    HW152709   5.204   9.085   2.261
15954SOL    HW252710   5.100   9.139   2.358
15955SOL     OW52711   3.808   9.326   3.690
15955SOL    HW152712   3.757   9.254   3.727
15955SOL    HW252713   3.874   9.346   3.757
15956SOL     OW52714   5.012   8.407   2.552
15956SOL    HW152715   5.073   8.333   2.549
15956SOL    HW252716   5.037   8.461   2.476
15957SOL     OW52717   4.530   8.737   3.297
15957SOL    HW152718   4.498   8.748   3.387
15957SOL    HW252719   4.486   8.807   3.248
15958SOL     OW52720   5.346   9.189   3.257
15958SOL    HW152721   5.398   9.195   3.177
15958SOL    HW252722   5.323   9.280   3.278
15959SOL     OW52723   5.511   7.604   2.877
15959SOL    HW152724   5.584   7.657   2.845
15959SOL    HW252725   5.434   7.638   2.831
15960SOL     OW52726   3.971   7.797   2.610
15960SOL    HW152727   3.877   7.800   2.590
15960SOL    HW252728   3.975   7.768   2.701
15961SOL     OW52729   4.904   9.077   1.859
15961SOL    HW152730   4.822   9.055   1.815
15961SOL    HW252731   4.941   9.148   1.808
15962SOL     OW52732   4.527   8.491   3.167
15962SOL    HW152733   4.511   8.521   3.077
15962SOL    HW252734   4.534   8.572   3.218
15963SOL     OW52735   4.711   8.376   2.201
15963SOL    HW152736   4.721   8.385   2.106
15963SOL    HW252737   4.734   8.285   2.218
15964SOL     OW52738   5.287   9.043   1.835
15964SOL    HW152739   5.203   9.060   1.792
15964SOL    HW252740   5.347   9.025   1.763
15965SOL     OW52741   4.137   8.743   3.386
15965SOL    HW152742   4.133   8.812   3.320
15965SOL    HW252743   4.054   8.697   3.377
15966SOL     OW52744   5.346   8.761   3.097
15966SOL    HW152745   5.429   8.765   3.144
15966SOL    HW252746   5.286   8.814   3.150
15967SOL     OW52747   4.816   8.614   2.579
15967SOL    HW152748   4.739   8.573   2.617
15967SOL    HW252749   4.881   8.543   2.572
15968SOL     OW52750   4.787   7.712   2.843
15968SOL    HW152751   4.782   7.678   2.753
15968SOL    HW252752   4.773   7.635   2.898
15969SOL     OW52753   4.348   8.945   2.393
15969SOL    HW152754   4.383   8.884   2.328
15969SOL    HW252755   4.290   9.002   2.343
15970SOL     OW52756   5.381   7.812   3.314
15970SOL    HW152757   5.308   7.874   3.309
15970SOL    HW252758   5.408   7.799   3.223
15971SOL     OW52759   3.935   8.737   2.255
15971SOL    HW152760   3.894   8.775   2.178
15971SOL    HW252761   3.937   8.808   2.319
15972SOL     OW52762   3.802   8.488   3.629
15972SOL    HW152763   3.793   8.557   3.695
15972SOL    HW252764   3.875   8.435   3.659
15973SOL     OW52765   4.397   7.618   3.373
15973SOL    HW152766   4.478   7.630   3.324
15973SOL    HW252767   4.420   7.640   3.463
15974SOL     OW52768   3.827   7.723   1.874
15974SOL    HW152769   3.774   7.749   1.798
15974SOL    HW252770   3.853   7.805   1.914
15975SOL     OW52771   3.758   7.582   2.123
15975SOL    HW152772   3.735   7.637   2.048
15975SOL    HW252773   3.853   7.574   2.118
15976SOL     OW52774   4.906   8.796   1.929
15976SOL    HW152775   4.811   8.790   1.940
15976SOL    HW252776   4.924   8.890   1.921
15977SOL     OW52777   4.332   8.349   3.304
15977SOL    HW152778   4.329   8.410   3.377
15977SOL    HW252779   4.400   8.384   3.246
15978SOL     OW52780   5.155   9.298   2.854
15978SOL    HW152781   5.207   9.338   2.785
15978SOL    HW252782   5.152   9.364   2.924
15979SOL     OW52783   4.513   7.950   3.580
15979SOL    HW152784   4.553   8.023   3.627
15979SOL    HW252785   4.493   7.985   3.493
15980SOL     OW52786   5.156   8.621   3.467
15980SOL    HW152787   5.143   8.628   3.562
15980SOL    HW252788   5.250   8.631   3.454
15981SOL     OW52789   4.078   9.190   3.358
15981SOL    HW152790   4.033   9.221   3.279
15981SOL    HW252791   4.011   9.140   3.405
15982SOL     OW52792   5.386   8.301   3.113
15982SOL    HW152793   5.324   8.229   3.100
15982SOL    HW252794   5.359   8.368   3.050
15983SOL     OW52795   4.919   7.772   2.382
15983SOL    HW152796   4.994   7.714   2.370
15983SOL    HW252797   4.948   7.835   2.448
15984SOL     OW52798   4.293   8.181   2.506
15984SOL    HW152799   4.345   8.261   2.510
15984SOL    HW252800   4.236   8.193   2.430
15985SOL     OW52801   5.515   7.767   3.545
15985SOL    HW152802   5.482   7.793   3.459
15985SOL    HW252803   5.441   7.724   3.587
15986SOL     OW52804   5.441   8.364   3.376
15986SOL    HW152805   5.428   8.457   3.391
15986SOL    HW252806   5.422   8.351   3.283
15987SOL     OW52807   4.634   8.824   1.907
15987SOL    HW152808   4.540   8.826   1.926
15987SOL    HW252809   4.645   8.890   1.838
15988SOL     OW52810   4.429   9.247   2.822
15988SOL    HW152811   4.374   9.325   2.812
15988SOL    HW252812   4.516   9.282   2.844
15989SOL     OW52813   4.618   8.452   2.703
15989SOL    HW152814   4.656   8.373   2.742
15989SOL    HW252815   4.575   8.496   2.777
15990SOL     OW52816   4.761   8.383   1.931
15990SOL    HW152817   4.732   8.432   1.854
15990SOL    HW252818   4.847   8.348   1.907
15991SOL     OW52819   5.566   9.004   2.640
15991SOL    HW152820   5.498   9.040   2.583
15991SOL    HW252821   5.519   8.970   2.715
15992SOL     OW52822   3.967   8.808   3.717
15992SOL    HW152823   3.947   8.890   3.672
15992SOL    HW252824   3.882   8.778   3.750
15993SOL     OW52825   3.767   8.682   2.529
15993SOL    HW152826   3.842   8.652   2.579
15993SOL    HW252827   3.799   8.757   2.479
15994SOL     OW52828   4.374   8.801   3.523
15994SOL    HW152829   4.291   8.794   3.475
15994SOL    HW252830   4.374   8.890   3.558
15995SOL     OW52831   5.479   7.567   3.152
15995SOL    HW152832   5.572   7.559   3.176
15995SOL    HW252833   5.480   7.605   3.064
15996SOL     OW52834   4.186   7.868   2.357
15996SOL    HW152835   4.250   7.799   2.341
15996SOL    HW252836   4.171   7.907   2.271
15997SOL     OW52837   5.427   8.908   2.876
15997SOL    HW152838   5.343   8.914   2.829
15997SOL    HW252839   5.407   8.859   2.955
15998SOL     OW52840   4.126   8.029   3.180
15998SOL    HW152841   4.157   7.953   3.228
15998SOL    HW252842   4.102   7.996   3.094
15999SOL     OW52843   4.534   9.100   2.530
15999SOL    HW152844   4.533   9.186   2.487
15999SOL    HW252845   4.459   9.054   2.493
16000SOL     OW52846   5.105   7.718   3.149
16000SOL    HW152847   5.192   7.682   3.131
16000SOL    HW252848   5.122   7.806   3.184
16001SOL     OW52849   4.753   7.461   2.965
16001SOL    HW152850   4.698   7.407   2.908
16001SOL    HW252851   4.840   7.423   2.958
16002SOL     OW52852   4.426   8.773   2.198
16002SOL    HW152853   4.440   8.679   2.186
16002SOL    HW252854   4.407   8.806   2.110
16003SOL     OW52855   4.418   8.951   3.169
16003SOL    HW152856   4.386   9.025   3.221
16003SOL    HW252857   4.484   8.989   3.111
16004SOL     OW52858   5.034   7.543   2.035
16004SOL    HW152859   5.103   7.601   2.003
16004SOL    HW252860   4.969   7.542   1.965
16005SOL     OW52861   4.987   7.975   2.552
16005SOL    HW152862   4.915   8.037   2.558
16005SOL    HW252863   5.066   8.029   2.555
16006SOL     OW52864   5.276   7.667   2.744
16006SOL    HW152865   5.202   7.707   2.790
16006SOL    HW252866   5.300   7.732   2.678
16007SOL     OW52867   3.744   8.543   2.208
16007SOL    HW152868   3.814   8.602   2.237
16007SOL    HW252869   3.785   8.456   2.209
16008SOL     OW52870   4.585   9.090   2.152
16008SOL    HW152871   4.516   9.054   2.097
16008SOL    HW252872   4.552   9.176   2.178
16009SOL     OW52873   3.933   8.052   3.890
16009SOL    HW152874   3.838   8.041   3.898
16009SOL    HW252875   3.947   8.061   3.796
16010SOL     OW52876   3.956   7.732   4.718
16010SOL    HW152877   3.981   7.695   4.802
16010SOL    HW252878   3.870   7.693   4.699
16011SOL     OW52879   3.653   7.778   4.339
16011SOL    HW152880   3.602   7.822   4.407
16011SOL    HW252881   3.668   7.845   4.272
16012SOL     OW52882   4.275   8.741   4.894
16012SOL    HW152883   4.200   8.778   4.848
16012SOL    HW252884   4.305   8.812   4.950
16013SOL     OW52885   5.205   8.923   4.433
16013SOL    HW152886   5.156   8.936   4.514
16013SOL    HW252887   5.145   8.950   4.364
16014SOL     OW52888   4.840   8.148   4.450
16014SOL    HW152889   4.889   8.224   4.419
16014SOL    HW252890   4.788   8.182   4.523
16015SOL     OW52891   5.511   8.079   3.959
16015SOL    HW152892   5.474   8.063   3.872
16015SOL    HW252893   5.437   8.066   4.018
16016SOL     OW52894   4.467   8.590   4.776
16016SOL    HW152895   4.398   8.641   4.818
16016SOL    HW252896   4.508   8.652   4.715
16017SOL     OW52897   4.638   8.174   5.541
16017SOL    HW152898   4.659   8.251   5.593
16017SOL    HW252899   4.631   8.206   5.451
16018SOL     OW52900   4.394   8.412   4.401
16018SOL    HW152901   4.471   8.425   4.457
16018SOL    HW252902   4.338   8.488   4.418
16019SOL     OW52903   4.465   8.596   5.587
16019SOL    HW152904   4.520   8.672   5.606
16019SOL    HW252905   4.389   8.631   5.540
16020SOL     OW52906   4.067   8.895   4.782
16020SOL    HW152907   3.985   8.906   4.734
16020SOL    HW252908   4.131   8.944   4.732
16021SOL     OW52909   4.197   7.855   5.149
16021SOL    HW152910   4.245   7.877   5.228
16021SOL    HW252911   4.122   7.804   5.180
16022SOL     OW52912   5.324   7.884   4.450
16022SOL    HW152913   5.266   7.913   4.380
16022SOL    HW252914   5.302   7.939   4.525
16023SOL     OW52915   3.960   9.144   4.189
16023SOL    HW152916   3.976   9.219   4.246
16023SOL    HW252917   4.039   9.137   4.135
16024SOL     OW52918   4.939   8.812   5.441
16024SOL    HW152919   4.975   8.881   5.496
16024SOL    HW252920   4.846   8.832   5.435
16025SOL     OW52921   3.877   8.904   4.301
16025SOL    HW152922   3.907   8.988   4.267
16025SOL    HW252923   3.814   8.927   4.370
16026SOL     OW52924   3.953   8.578   4.586
16026SOL    HW152925   3.995   8.501   4.625
16026SOL    HW252926   3.899   8.614   4.656
16027SOL     OW52927   4.271   9.207   5.149
16027SOL    HW152928   4.187   9.226   5.190
16027SOL    HW252929   4.322   9.287   5.161
16028SOL     OW52930   4.338   8.399   3.848
16028SOL    HW152931   4.374   8.460   3.784
16028SOL    HW252932   4.375   8.427   3.932
16029SOL     OW52933   5.323   7.546   5.210
16029SOL    HW152934   5.379   7.612   5.169
16029SOL    HW252935   5.286   7.590   5.286
16030SOL     OW52936   3.830   8.149   4.316
16030SOL    HW152937   3.739   8.171   4.299
16030SOL    HW252938   3.846   8.182   4.405
16031SOL     OW52939   5.561   9.186   4.078
16031SOL    HW152940   5.636   9.170   4.136
16031SOL    HW252941   5.571   9.277   4.051
16032SOL     OW52942   3.709   9.089   3.790
16032SOL    HW152943   3.620   9.053   3.781
16032SOL    HW252944   3.715   9.114   3.882
16033SOL     OW52945   5.411   8.302   4.314
16033SOL    HW152946   5.460   8.339   4.388
16033SOL    HW252947   5.388   8.378   4.260
16034SOL     OW52948   5.363   8.551   4.183
16034SOL    HW152949   5.451   8.564   4.149
16034SOL    HW252950   5.359   8.606   4.261
16035SOL     OW52951   3.816   8.229   5.331
16035SOL    HW152952   3.850   8.282   5.403
16035SOL    HW252953   3.743   8.279   5.296
16036SOL     OW52954   4.334   8.834   4.443
16036SOL    HW152955   4.283   8.753   4.437
16036SOL    HW252956   4.331   8.872   4.355
16037SOL     OW52957   5.046   8.648   5.236
16037SOL    HW152958   5.092   8.711   5.180
16037SOL    HW252959   5.013   8.701   5.309
16038SOL     OW52960   4.539   7.443   4.226
16038SOL    HW152961   4.592   7.521   4.210
16038SOL    HW252962   4.450   7.478   4.241
16039SOL     OW52963   3.836   8.383   4.916
16039SOL    HW152964   3.925   8.387   4.951
16039SOL    HW252965   3.821   8.470   4.880
16040SOL     OW52966   5.283   8.465   3.928
16040SOL    HW152967   5.231   8.389   3.956
16040SOL    HW252968   5.313   8.504   4.010
16041SOL     OW52969   4.911   9.254   5.341
16041SOL    HW152970   4.926   9.338   5.299
16041SOL    HW252971   4.918   9.190   5.269
16042SOL     OW52972   4.085   7.794   5.531
16042SOL    HW152973   4.128   7.840   5.602
16042SOL    HW252974   4.043   7.862   5.479
16043SOL     OW52975   5.156   8.883   4.719
16043SOL    HW152976   5.115   8.968   4.735
16043SOL    HW252977   5.202   8.863   4.801
16044SOL     OW52978   5.425   9.089   4.371
16044SOL    HW152979   5.412   9.148   4.297
16044SOL    HW252980   5.339   9.050   4.387
16045SOL     OW52981   4.353   8.148   3.985
16045SOL    HW152982   4.365   8.198   3.904
16045SOL    HW252983   4.363   8.212   4.055
16046SOL     OW52984   5.036   7.830   4.677
16046SOL    HW152985   4.956   7.777   4.676
16046SOL    HW252986   5.094   7.786   4.738
16047SOL     OW52987   5.282   9.135   4.034
16047SOL    HW152988   5.375   9.154   4.048
16047SOL    HW252989   5.245   9.219   4.006
16048SOL     OW52990   4.417   8.067   5.095
16048SOL    HW152991   4.494   8.067   5.152
16048SOL    HW252992   4.386   8.158   5.099
16049SOL     OW52993   5.137   7.957   5.392
16049SOL    HW152994   5.120   7.981   5.483
16049SOL    HW252995   5.203   8.019   5.362
16050SOL     OW52996   4.593   8.263   5.269
16050SOL    HW152997   4.644   8.265   5.188
16050SOL    HW252998   4.610   8.347   5.311
16051SOL     OW52999   4.584   7.868   4.909
16051SOL    HW153000   4.650   7.913   4.962
16051SOL    HW253001   4.616   7.877   4.819
16052SOL     OW53002   4.768   8.114   4.181
16052SOL    HW153003   4.783   8.131   4.274
16052SOL    HW253004   4.680   8.077   4.178
16053SOL     OW53005   3.825   8.275   4.561
16053SOL    HW153006   3.903   8.303   4.610
16053SOL    HW253007   3.768   8.352   4.561
16054SOL     OW53008   4.633   7.771   3.936
16054SOL    HW153009   4.677   7.840   3.887
16054SOL    HW253010   4.641   7.693   3.882
16055SOL     OW53011   5.383   8.050   5.577
16055SOL    HW153012   5.369   8.120   5.513
16055SOL    HW253013   5.424   7.980   5.527
16056SOL     OW53014   5.071   8.536   4.156
16056SOL    HW153015   5.161   8.566   4.167
16056SOL    HW253016   5.020   8.617   4.142
16057SOL     OW53017   4.276   7.607   4.659
16057SOL    HW153018   4.287   7.637   4.749
16057SOL    HW253019   4.279   7.687   4.607
16058SOL     OW53020   4.706   8.913   4.191
16058SOL    HW153021   4.692   8.985   4.130
16058SOL    HW253022   4.680   8.948   4.276
16059SOL     OW53023   4.072   9.245   4.606
16059SOL    HW153024   4.131   9.170   4.613
16059SOL    HW253025   4.126   9.320   4.631
16060SOL     OW53026   5.528   8.436   4.530
16060SOL    HW153027   5.580   8.511   4.499
16060SOL    HW253028   5.476   8.471   4.602
16061SOL     OW53029   4.934   8.954   5.200
16061SOL    HW153030   4.959   8.918   5.286
16061SOL    HW253031   5.014   8.949   5.148
16062SOL     OW53032   4.082   8.318   3.969
16062SOL    HW153033   4.175   8.336   3.960
16062SOL    HW253034   4.047   8.324   3.880
16063SOL     OW53035   5.193   8.218   4.461
16063SOL    HW153036   5.220   8.155   4.528
16063SOL    HW253037   5.274   8.245   4.419
16064SOL     OW53038   4.186   8.620   5.510
16064SOL    HW153039   4.179   8.657   5.422
16064SOL    HW253040   4.181   8.695   5.569
16065SOL     OW53041   4.894   9.180   3.970
16065SOL    HW153042   4.803   9.172   3.997
16065SOL    HW253043   4.900   9.128   3.890
16066SOL     OW53044   3.902   7.784   5.185
16066SOL    HW153045   3.817   7.809   5.150
16066SOL    HW253046   3.921   7.850   5.251
16067SOL     OW53047   5.376   8.791   3.732
16067SOL    HW153048   5.342   8.880   3.726
16067SOL    HW253049   5.297   8.736   3.737
16068SOL     OW53050   4.211   9.155   4.063
16068SOL    HW153051   4.243   9.232   4.110
16068SOL    HW253052   4.271   9.145   3.990
16069SOL     OW53053   5.136   7.550   4.162
16069SOL    HW153054   5.141   7.509   4.075
16069SOL    HW253055   5.199   7.622   4.158
16070SOL     OW53056   3.930   9.223   5.033
16070SOL    HW153057   3.978   9.249   5.112
16070SOL    HW253058   3.947   9.293   4.970
16071SOL     OW53059   4.691   9.009   4.643
16071SOL    HW153060   4.785   9.027   4.631
16071SOL    HW253061   4.650   9.043   4.564
16072SOL     OW53062   5.232   7.694   5.425
16072SOL    HW153063   5.235   7.690   5.521
16072SOL    HW253064   5.192   7.779   5.406
16073SOL     OW53065   4.372   7.507   3.836
16073SOL    HW153066   4.427   7.571   3.791
16073SOL    HW253067   4.307   7.481   3.771
16074SOL     OW53068   4.473   7.694   5.407
16074SOL    HW153069   4.562   7.674   5.434
16074SOL    HW253070   4.463   7.788   5.425
16075SOL     OW53071   4.596   8.999   4.906
16075SOL    HW153072   4.619   9.016   4.815
16075SOL    HW253073   4.663   8.938   4.937
16076SOL     OW53074   5.036   8.048   5.141
16076SOL    HW153075   5.067   8.033   5.230
16076SOL    HW253076   5.080   8.128   5.113
16077SOL     OW53077   4.559   8.771   4.597
16077SOL    HW153078   4.604   8.852   4.620
16077SOL    HW253079   4.488   8.799   4.538
16078SOL     OW53080   4.680   7.904   4.651
16078SOL    HW153081   4.646   7.906   4.562
16078SOL    HW253082   4.735   7.826   4.654
16079SOL     OW53083   4.282   7.535   4.243
16079SOL    HW153084   4.202   7.535   4.294
16079SOL    HW253085   4.269   7.604   4.177
16080SOL     OW53086   5.144   8.633   3.749
16080SOL    HW153087   5.180   8.580   3.820
16080SOL    HW253088   5.064   8.670   3.785
16081SOL     OW53089   4.034   7.531   3.892
16081SOL    HW153090   4.056   7.584   3.816
16081SOL    HW253091   4.086   7.568   3.963
16082SOL     OW53092   4.685   7.676   4.195
16082SOL    HW153093   4.650   7.712   4.114
16082SOL    HW253094   4.777   7.703   4.196
16083SOL     OW53095   4.782   8.021   5.029
16083SOL    HW153096   4.748   8.110   5.023
16083SOL    HW253097   4.865   8.030   5.076
16084SOL     OW53098   4.956   9.049   4.571
16084SOL    HW153099   4.968   9.112   4.499
16084SOL    HW253100   4.994   9.091   4.647
16085SOL     OW53101   4.186   8.597   4.421
16085SOL    HW153102   4.106   8.605   4.474
16085SOL    HW253103   4.154   8.577   4.333
16086SOL     OW53104   4.981   9.218   4.346
16086SOL    HW153105   5.029   9.292   4.310
16086SOL    HW253106   4.896   9.254   4.369
16087SOL     OW53107   4.781   7.941   3.775
16087SOL    HW153108   4.742   8.024   3.748
16087SOL    HW253109   4.837   7.964   3.848
16088SOL     OW53110   3.808   8.107   5.083
16088SOL    HW153111   3.896   8.082   5.058
16088SOL    HW253112   3.816   8.139   5.173
16089SOL     OW53113   4.300   7.681   4.928
16089SOL    HW153114   4.345   7.643   5.003
16089SOL    HW253115   4.207   7.672   4.948
16090SOL     OW53116   4.594   7.868   4.388
16090SOL    HW153117   4.547   7.932   4.334
16090SOL    HW253118   4.627   7.804   4.325
16091SOL     OW53119   4.774   7.524   4.431
16091SOL    HW153120   4.736   7.580   4.364
16091SOL    HW253121   4.702   7.469   4.461
16092SOL     OW53122   5.142   8.582   4.587
16092SOL    HW153123   5.068   8.641   4.601
16092SOL    HW253124   5.198   8.628   4.524
16093SOL     OW53125   5.230   8.029   4.658
16093SOL    HW153126   5.147   7.983   4.674
16093SOL    HW253127   5.271   8.034   4.744
16094SOL     OW53128   5.663   8.285   4.062
16094SOL    HW153129   5.663   8.249   4.151
16094SOL    HW253130   5.604   8.228   4.013
16095SOL     OW53131   4.185   8.858   3.889
16095SOL    HW153132   4.139   8.833   3.970
16095SOL    HW253133   4.121   8.843   3.820
16096SOL     OW53134   5.366   8.708   4.406
16096SOL    HW153135   5.452   8.743   4.432
16096SOL    HW253136   5.308   8.784   4.408
16097SOL     OW53137   5.121   7.972   3.824
16097SOL    HW153138   5.055   7.988   3.891
16097SOL    HW253139   5.146   8.059   3.794
16098SOL     OW53140   4.236   7.680   4.018
16098SOL    HW153141   4.298   7.642   3.955
16098SOL    HW253142   4.222   7.769   3.986
16099SOL     OW53143   5.476   8.669   5.264
16099SOL    HW153144   5.566   8.642   5.242
16099SOL    HW253145   5.475   8.763   5.248
16100SOL     OW53146   4.765   8.813   5.024
16100SOL    HW153147   4.695   8.789   5.086
16100SOL    HW253148   4.829   8.859   5.078
16101SOL     OW53149   5.334   9.092   5.395
16101SOL    HW153150   5.298   9.050   5.316
16101SOL    HW253151   5.412   9.138   5.363
16102SOL     OW53152   4.833   8.618   4.839
16102SOL    HW153153   4.813   8.688   4.900
16102SOL    HW253154   4.862   8.664   4.759
16103SOL     OW53155   5.360   8.515   4.748
16103SOL    HW153156   5.386   8.601   4.781
16103SOL    HW253157   5.276   8.530   4.704
16104SOL     OW53158   4.683   7.490   5.084
16104SOL    HW153159   4.705   7.484   4.991
16104SOL    HW253160   4.745   7.553   5.119
16105SOL     OW53161   4.641   8.495   5.396
16105SOL    HW153162   4.582   8.524   5.466
16105SOL    HW253163   4.695   8.571   5.377
16106SOL     OW53164   4.408   8.383   4.123
16106SOL    HW153165   4.409   8.404   4.217
16106SOL    HW253166   4.500   8.371   4.101
16107SOL     OW53167   4.107   8.317   4.981
16107SOL    HW153168   4.162   8.340   5.056
16107SOL    HW253169   4.090   8.223   4.992
16108SOL     OW53170   4.997   7.812   5.008
16108SOL    HW153171   5.033   7.888   5.055
16108SOL    HW253172   4.922   7.847   4.960
16109SOL     OW53173   4.092   8.535   4.168
16109SOL    HW153174   4.060   8.619   4.135
16109SOL    HW253175   4.090   8.477   4.093
16110SOL     OW53176   4.293   7.962   4.556
16110SOL    HW153177   4.272   8.026   4.488
16110SOL    HW253178   4.361   8.003   4.608
16111SOL     OW53179   4.944   8.788   4.110
16111SOL    HW153180   5.002   8.860   4.134
16111SOL    HW253181   4.858   8.814   4.144
16112SOL     OW53182   5.312   8.067   4.169
16112SOL    HW153183   5.231   8.109   4.140
16112SOL    HW253184   5.355   8.133   4.223
16113SOL     OW53185   4.081   8.916   5.056
16113SOL    HW153186   4.073   8.923   4.961
16113SOL    HW253187   4.155   8.972   5.079
16114SOL     OW53188   4.203   8.137   5.350
16114SOL    HW153189   4.236   8.187   5.276
16114SOL    HW253190   4.195   8.202   5.421
16115SOL     OW53191   5.283   8.188   5.347
16115SOL    HW153192   5.212   8.251   5.359
16115SOL    HW253193   5.349   8.235   5.297
16116SOL     OW53194   4.723   7.602   5.487
16116SOL    HW153195   4.779   7.679   5.476
16116SOL    HW253196   4.775   7.530   5.450
16117SOL     OW53197   4.330   8.350   4.783
16117SOL    HW153198   4.385   8.425   4.764
16117SOL    HW253199   4.279   8.376   4.860
16118SOL     OW53200   5.048   8.335   4.671
16118SOL    HW153201   5.070   8.425   4.646
16118SOL    HW253202   5.090   8.281   4.603
16119SOL     OW53203   4.921   7.971   4.009
16119SOL    HW153204   4.930   7.895   4.067
16119SOL    HW253205   4.878   8.037   4.064
16120SOL     OW53206   4.025   7.634   4.971
16120SOL    HW153207   3.977   7.679   5.041
16120SOL    HW253208   3.996   7.543   4.978
16121SOL     OW53209   3.844   8.778   5.050
16121SOL    HW153210   3.857   8.708   5.115
16121SOL    HW253211   3.930   8.817   5.039
16122SOL     OW53212   4.422   8.092   4.770
16122SOL    HW153213   4.514   8.112   4.750
16122SOL    HW253214   4.379   8.178   4.773
16123SOL     OW53215   5.445   8.391   5.581
16123SOL    HW153216   5.400   8.451   5.522
16123SOL    HW253217   5.394   8.393   5.662
16124SOL     OW53218   4.031   7.515   4.353
16124SOL    HW153219   3.995   7.603   4.364
16124SOL    HW253220   4.036   7.480   4.443
16125SOL     OW53221   5.298   7.775   4.132
16125SOL    HW153222   5.369   7.741   4.186
16125SOL    HW253223   5.304   7.870   4.142
16126SOL     OW53224   4.688   8.178   4.712
16126SOL    HW153225   4.741   8.204   4.787
16126SOL    HW253226   4.710   8.086   4.698
16127SOL     OW53227   4.702   8.941   5.361
16127SOL    HW153228   4.638   9.011   5.346
16127SOL    HW253229   4.772   8.958   5.297
16128SOL     OW53230   5.594   8.931   5.249
16128SOL    HW153231   5.577   9.025   5.257
16128SOL    HW253232   5.656   8.911   5.319
16129SOL     OW53233   4.206   8.343   5.525
16129SOL    HW153234   4.254   8.349   5.608
16129SOL    HW253235   4.186   8.434   5.502
16130SOL     OW53236   5.186   7.713   3.881
16130SOL    HW153237   5.156   7.799   3.851
16130SOL    HW253238   5.233   7.731   3.962
16131SOL     OW53239   5.041   8.300   3.741
16131SOL    HW153240   5.103   8.368   3.713
16131SOL    HW253241   5.020   8.252   3.660
16132SOL     OW53242   4.916   8.750   4.604
16132SOL    HW153243   4.839   8.776   4.554
16132SOL    HW253244   4.960   8.833   4.624
16133SOL     OW53245   4.061   8.347   4.697
16133SOL    HW153246   4.154   8.343   4.677
16133SOL    HW253247   4.056   8.336   4.792
16134SOL     OW53248   4.157   7.912   4.786
16134SOL    HW153249   4.084   7.856   4.760
16134SOL    HW253250   4.196   7.941   4.703
16135SOL     OW53251   4.885   7.818   5.423
16135SOL    HW153252   4.835   7.869   5.487
16135SOL    HW253253   4.964   7.870   5.407
16136SOL     OW53254   4.879   7.648   5.200
16136SOL    HW153255   4.874   7.711   5.271
16136SOL    HW253256   4.928   7.693   5.131
16137SOL     OW53257   3.742   8.678   3.828
16137SOL    HW153258   3.652   8.711   3.836
16137SOL    HW253259   3.758   8.633   3.911
16138SOL     OW53260   3.803   9.196   4.640
16138SOL    HW153261   3.787   9.135   4.568
16138SOL    HW253262   3.896   9.218   4.632
16139SOL     OW53263   4.246   9.025   4.625
16139SOL    HW153264   4.319   9.087   4.636
16139SOL    HW253265   4.279   8.962   4.561
16140SOL     OW53266   4.713   8.287   5.016
16140SOL    HW153267   4.798   8.324   4.992
16140SOL    HW253268   4.653   8.362   5.013
16141SOL     OW53269   3.970   7.987   5.364
16141SOL    HW153270   4.049   8.040   5.357
16141SOL    HW253271   3.900   8.050   5.378
16142SOL     OW53272   5.104   8.403   5.363
16142SOL    HW153273   5.178   8.455   5.397
16142SOL    HW253274   5.056   8.464   5.307
16143SOL     OW53275   4.530   7.973   4.121
16143SOL    HW153276   4.553   7.911   4.052
16143SOL    HW253277   4.472   8.036   4.078
16144SOL     OW53278   5.365   8.003   4.898
16144SOL    HW153279   5.359   8.096   4.920
16144SOL    HW253280   5.456   7.991   4.870
16145SOL     OW53281   4.584   9.151   5.216
16145SOL    HW153282   4.578   9.128   5.123
16145SOL    HW253283   4.614   9.241   5.217
16146SOL     OW53284   4.190   7.930   3.915
16146SOL    HW153285   4.249   8.003   3.932
16146SOL    HW253286   4.102   7.969   3.914
16147SOL     OW53287   3.902   8.602   5.253
16147SOL    HW153288   3.874   8.675   5.309
16147SOL    HW253289   3.860   8.525   5.292
16148SOL     OW53290   4.948   8.386   4.918
16148SOL    HW153291   4.987   8.360   4.835
16148SOL    HW253292   4.915   8.474   4.902
16149SOL     OW53293   5.104   8.274   4.020
16149SOL    HW153294   5.060   8.342   4.071
16149SOL    HW253295   5.059   8.275   3.935
16150SOL     OW53296   3.786   8.638   4.814
16150SOL    HW153297   3.804   8.696   4.888
16150SOL    HW253298   3.698   8.663   4.785
16151SOL     OW53299   4.403   9.093   5.425
16151SOL    HW153300   4.341   9.163   5.443
16151SOL    HW253301   4.458   9.128   5.354
16152SOL     OW53302   5.483   7.596   4.255
16152SOL    HW153303   5.527   7.578   4.172
16152SOL    HW253304   5.464   7.509   4.291
16153SOL     OW53305   5.088   9.008   4.196
16153SOL    HW153306   5.151   9.048   4.136
16153SOL    HW253307   5.039   9.082   4.232
16154SOL     OW53308   4.983   8.359   4.347
16154SOL    HW153309   5.063   8.321   4.383
16154SOL    HW253310   5.013   8.426   4.287
16155SOL     OW53311   4.523   8.753   5.155
16155SOL    HW153312   4.498   8.763   5.247
16155SOL    HW253313   4.475   8.821   5.109
16156SOL     OW53314   4.395   9.037   3.882
16156SOL    HW153315   4.399   9.058   3.788
16156SOL    HW253316   4.329   8.967   3.888
16157SOL     OW53317   5.632   7.685   4.696
16157SOL    HW153318   5.654   7.592   4.684
16157SOL    HW253319   5.553   7.698   4.643
16158SOL     OW53320   3.931   7.762   4.415
16158SOL    HW153321   3.837   7.770   4.398
16158SOL    HW253322   3.941   7.784   4.508
16159SOL     OW53323   4.927   9.022   3.744
16159SOL    HW153324   4.913   8.932   3.773
16159SOL    HW253325   4.853   9.042   3.688
16160SOL     OW53326   4.538   8.502   5.030
16160SOL    HW153327   4.530   8.534   4.940
16160SOL    HW253328   4.543   8.582   5.083
16161SOL     OW53329   4.645   8.307   4.015
16161SOL    HW153330   4.699   8.352   3.950
16161SOL    HW253331   4.707   8.270   4.077
16162SOL     OW53332   5.214   9.033   3.725
16162SOL    HW153333   5.228   9.076   3.809
16162SOL    HW253334   5.119   9.033   3.713
16163SOL     OW53335   4.150   8.725   5.253
16163SOL    HW153336   4.141   8.786   5.180
16163SOL    HW253337   4.070   8.672   5.249
16164SOL     OW53338   4.714   8.439   4.321
16164SOL    HW153339   4.682   8.448   4.411
16164SOL    HW253340   4.809   8.426   4.330
16165SOL     OW53341   4.818   7.665   4.669
16165SOL    HW153342   4.815   7.619   4.585
16165SOL    HW253343   4.797   7.597   4.734
16166SOL     OW53344   4.318   8.926   4.187
16166SOL    HW153345   4.372   8.888   4.117
16166SOL    HW253346   4.275   9.001   4.146
16167SOL     OW53347   5.490   7.833   5.166
16167SOL    HW153348   5.533   7.918   5.153
16167SOL    HW253349   5.451   7.813   5.081
16168SOL     OW53350   3.987   8.778   4.076
16168SOL    HW153351   3.914   8.796   4.016
16168SOL    HW253352   3.964   8.824   4.157
16169SOL     OW53353   3.841   8.440   5.511
16169SOL    HW153354   3.748   8.462   5.512
16169SOL    HW253355   3.885   8.521   5.534
16170SOL     OW53356   4.424   7.572   5.158
16170SOL    HW153357   4.513   7.551   5.132
16170SOL    HW253358   4.434   7.623   5.239
16171SOL     OW53359   3.841   7.765   3.704
16171SOL    HW153360   3.772   7.737   3.643
16171SOL    HW253361   3.847   7.859   3.692
16172SOL     OW53362   5.156   8.289   5.072
16172SOL    HW153363   5.086   8.338   5.030
16172SOL    HW253364   5.195   8.351   5.134
16173SOL     OW53365   3.768   7.597   3.949
16173SOL    HW153366   3.747   7.671   3.893
16173SOL    HW253367   3.861   7.580   3.933
16174SOL     OW53368   4.900   8.754   3.834
16174SOL    HW153369   4.805   8.750   3.827
16174SOL    HW253370   4.917   8.763   3.928
16175SOL     OW53371   4.338   8.325   5.168
16175SOL    HW153372   4.354   8.413   5.132
16175SOL    HW253373   4.414   8.308   5.224
16176SOL     OW53374   4.445   7.969   5.456
16176SOL    HW153375   4.369   8.025   5.437
16176SOL    HW253376   4.511   8.029   5.492
16177SOL     OW53377   5.296   8.575   5.448
16177SOL    HW153378   5.249   8.639   5.501
16177SOL    HW253379   5.348   8.627   5.387
16178SOL     OW53380   5.380   8.279   4.905
16178SOL    HW153381   5.305   8.291   4.962
16178SOL    HW253382   5.381   8.357   4.849
16179SOL     OW53383   4.943   7.759   4.195
16179SOL    HW153384   5.014   7.696   4.190
16179SOL    HW253385   4.965   7.814   4.270
16180SOL     OW53386   4.245   8.181   4.398
16180SOL    HW153387   4.312   8.250   4.395
16180SOL    HW253388   4.162   8.228   4.389
16181SOL     OW53389   5.481   7.824   5.444
16181SOL    HW153390   5.490   7.839   5.349
16181SOL    HW253391   5.406   7.765   5.452
16182SOL     OW53392   5.403   8.397   5.201
16182SOL    HW153393   5.411   8.486   5.235
16182SOL    HW253394   5.462   8.393   5.126
16183SOL     OW53395   4.627   8.787   3.801
16183SOL    HW153396   4.578   8.792   3.883
16183SOL    HW253397   4.609   8.871   3.758
16184SOL     OW53398   4.432   9.225   4.636
16184SOL    HW153399   4.379   9.304   4.633
16184SOL    HW253400   4.516   9.253   4.672
16185SOL     OW53401   4.610   8.419   4.580
16185SOL    HW153402   4.635   8.343   4.632
16185SOL    HW253403   4.604   8.490   4.644
16186SOL     OW53404   4.793   8.400   3.805
16186SOL    HW153405   4.779   8.467   3.738
16186SOL    HW253406   4.881   8.366   3.786
16187SOL     OW53407   5.569   8.891   4.489
16187SOL    HW153408   5.525   8.969   4.457
16187SOL    HW253409   5.548   8.888   4.583
16188SOL     OW53410   3.910   8.667   5.643
16188SOL    HW153411   3.904   8.734   5.575
16188SOL    HW253412   3.916   8.716   5.725
16189SOL     OW53413   3.842   8.629   4.332
16189SOL    HW153414   3.876   8.605   4.418
16189SOL    HW253415   3.859   8.723   4.326
16190SOL     OW53416   4.384   8.818   5.384
16190SOL    HW153417   4.300   8.807   5.340
16190SOL    HW253418   4.388   8.912   5.402
16191SOL     OW53419   5.473   7.663   4.937
16191SOL    HW153420   5.561   7.643   4.970
16191SOL    HW253421   5.484   7.673   4.842
16192SOL     OW53422   4.051   7.979   4.189
16192SOL    HW153423   4.140   7.945   4.177
16192SOL    HW253424   4.018   7.933   4.266
16193SOL     OW53425   5.431   8.802   4.728
16193SOL    HW153426   5.354   8.821   4.674
16193SOL    HW253427   5.410   8.838   4.814
16194SOL     OW53428   4.064   8.047   5.006
16194SOL    HW153429   4.107   7.988   5.068
16194SOL    HW253430   4.081   8.008   4.920
16195SOL     OW53431   4.600   9.076   4.392
16195SOL    HW153432   4.649   9.158   4.394
16195SOL    HW253433   4.510   9.102   4.374
16196SOL     OW53434   5.203   7.702   4.856
16196SOL    HW153435   5.284   7.691   4.905
16196SOL    HW253436   5.139   7.733   4.921
16197SOL     OW53437   4.764   7.432   4.819
16197SOL    HW153438   4.711   7.386   4.755
16197SOL    HW253439   4.851   7.393   4.812
16198SOL     OW53440   4.519   8.763   4.056
16198SOL    HW153441   4.500   8.683   4.105
16198SOL    HW253442   4.584   8.809   4.109
16199SOL     OW53443   4.364   8.968   5.045
16199SOL    HW153444   4.341   9.051   5.085
16199SOL    HW253445   4.437   8.989   4.986
16200SOL     OW53446   5.111   7.444   3.890
16200SOL    HW153447   5.121   7.537   3.872
16200SOL    HW253448   5.017   7.432   3.906
16201SOL     OW53449   4.994   7.914   4.413
16201SOL    HW153450   4.944   7.996   4.418
16201SOL    HW253451   5.013   7.892   4.504
16202SOL     OW53452   5.352   7.661   4.625
16202SOL    HW153453   5.293   7.686   4.697
16202SOL    HW253454   5.335   7.726   4.557
16203SOL     OW53455   3.762   8.556   4.077
16203SOL    HW153456   3.812   8.576   4.156
16203SOL    HW253457   3.671   8.575   4.101
16204SOL     OW53458   4.624   9.123   4.034
16204SOL    HW153459   4.547   9.105   3.981
16204SOL    HW253460   4.598   9.197   4.089
16205SOL     OW53461   3.971   7.721   6.625
16205SOL    HW153462   4.037   7.688   6.686
16205SOL    HW253463   3.888   7.707   6.670
16206SOL     OW53464   3.719   7.860   6.250
16206SOL    HW153465   3.643   7.905   6.287
16206SOL    HW253466   3.683   7.780   6.211
16207SOL     OW53467   4.278   8.725   6.720
16207SOL    HW153468   4.199   8.765   6.683
16207SOL    HW253469   4.308   8.789   6.785
16208SOL     OW53470   5.210   8.906   6.258
16208SOL    HW153471   5.175   8.908   6.347
16208SOL    HW253472   5.143   8.947   6.204
16209SOL     OW53473   4.831   8.120   6.250
16209SOL    HW153474   4.893   8.193   6.241
16209SOL    HW253475   4.795   8.129   6.338
16210SOL     OW53476   5.530   8.041   5.806
16210SOL    HW153477   5.483   8.062   5.725
16210SOL    HW253478   5.481   7.969   5.845
16211SOL     OW53479   4.437   8.575   6.557
16211SOL    HW153480   4.380   8.622   6.617
16211SOL    HW253481   4.502   8.640   6.529
16212SOL     OW53482   4.646   8.195   7.447
16212SOL    HW153483   4.628   8.261   7.514
16212SOL    HW253484   4.670   8.246   7.370
16213SOL     OW53485   4.389   8.439   6.294
16213SOL    HW153486   4.432   8.467   6.375
16213SOL    HW253487   4.311   8.494   6.289
16214SOL     OW53488   4.442   8.605   7.435
16214SOL    HW153489   4.478   8.679   7.483
16214SOL    HW253490   4.366   8.642   7.389
16215SOL     OW53491   4.061   8.869   6.625
16215SOL    HW153492   3.978   8.847   6.584
16215SOL    HW253493   4.102   8.931   6.565
16216SOL     OW53494   5.173   8.945   6.941
16216SOL    HW153495   5.237   9.016   6.938
16216SOL    HW253496   5.109   8.972   7.006
16217SOL     OW53497   4.162   7.772   7.075
16217SOL    HW153498   4.247   7.768   7.118
16217SOL    HW253499   4.107   7.822   7.135
16218SOL     OW53500   5.300   7.874   6.360
16218SOL    HW153501   5.232   7.913   6.305
16218SOL    HW253502   5.292   7.920   6.443
16219SOL     OW53503   3.971   9.148   6.033
16219SOL    HW153504   3.973   9.230   6.083
16219SOL    HW253505   4.052   9.148   5.983
16220SOL     OW53506   4.845   8.768   7.207
16220SOL    HW153507   4.886   8.715   7.139
16220SOL    HW253508   4.799   8.705   7.263
16221SOL     OW53509   3.884   8.922   6.167
16221SOL    HW153510   3.915   9.002   6.125
16221SOL    HW253511   3.835   8.953   6.244
16222SOL     OW53512   3.928   8.554   6.424
16222SOL    HW153513   3.964   8.492   6.487
16222SOL    HW253514   3.886   8.621   6.478
16223SOL     OW53515   4.288   9.183   6.998
16223SOL    HW153516   4.209   9.182   7.053
16223SOL    HW253517   4.321   9.273   7.005
16224SOL     OW53518   4.328   8.426   5.766
16224SOL    HW153519   4.377   8.482   5.706
16224SOL    HW253520   4.356   8.454   5.853
16225SOL     OW53521   5.322   7.563   7.047
16225SOL    HW153522   5.352   7.642   7.004
16225SOL    HW253523   5.291   7.592   7.133
16226SOL     OW53524   3.844   8.094   6.128
16226SOL    HW153525   3.804   8.019   6.171
16226SOL    HW253526   3.849   8.161   6.195
16227SOL     OW53527   5.568   9.212   5.912
16227SOL    HW153528   5.647   9.192   5.962
16227SOL    HW253529   5.586   9.296   5.870
16228SOL     OW53530   3.804   8.941   5.762
16228SOL    HW153531   3.844   8.945   5.675
16228SOL    HW253532   3.779   9.031   5.782
16229SOL     OW53533   5.393   8.324   6.216
16229SOL    HW153534   5.431   8.386   6.278
16229SOL    HW253535   5.459   8.316   6.147
16230SOL     OW53536   3.777   8.159   7.146
16230SOL    HW153537   3.815   8.238   7.186
16230SOL    HW253538   3.683   8.174   7.151
16231SOL     OW53539   4.337   8.824   6.326
16231SOL    HW153540   4.282   8.746   6.320
16231SOL    HW253541   4.328   8.868   6.242
16232SOL     OW53542   4.959   8.608   7.012
16232SOL    HW153543   4.940   8.519   6.982
16232SOL    HW253544   5.041   8.601   7.060
16233SOL     OW53545   4.557   7.481   6.046
16233SOL    HW153546   4.596   7.566   6.025
16233SOL    HW253547   4.465   7.500   6.062
16234SOL     OW53548   3.895   8.361   6.888
16234SOL    HW153549   3.983   8.324   6.887
16234SOL    HW253550   3.867   8.360   6.797
16235SOL     OW53551   5.267   8.433   5.795
16235SOL    HW153552   5.194   8.380   5.827
16235SOL    HW253553   5.316   8.456   5.874
16236SOL     OW53554   4.877   9.285   7.217
16236SOL    HW153555   4.894   9.358   7.158
16236SOL    HW253556   4.929   9.213   7.182
16237SOL     OW53557   4.114   7.715   7.424
16237SOL    HW153558   4.154   7.791   7.464
16237SOL    HW253559   4.023   7.740   7.408
16238SOL     OW53560   5.143   8.860   6.524
16238SOL    HW153561   5.093   8.902   6.594
16238SOL    HW253562   5.104   8.774   6.514
16239SOL     OW53563   5.405   9.091   6.183
16239SOL    HW153564   5.385   9.117   6.094
16239SOL    HW253565   5.328   9.042   6.212
16240SOL     OW53566   4.312   8.156   5.858
16240SOL    HW153567   4.319   8.246   5.828
16240SOL    HW253568   4.244   8.158   5.925
16241SOL     OW53569   4.937   7.769   6.500
16241SOL    HW153570   4.850   7.740   6.530
16241SOL    HW253571   4.974   7.815   6.576
16242SOL     OW53572   5.302   9.130   5.914
16242SOL    HW153573   5.390   9.167   5.906
16242SOL    HW253574   5.270   9.125   5.824
16243SOL     OW53575   5.218   7.912   7.259
16243SOL    HW153576   5.171   7.941   7.337
16243SOL    HW253577   5.306   7.947   7.270
16244SOL     OW53578   4.729   8.321   7.208
16244SOL    HW153579   4.825   8.321   7.213
16244SOL    HW253580   4.710   8.315   7.115
16245SOL     OW53581   4.781   8.124   5.977
16245SOL    HW153582   4.795   8.127   6.072
16245SOL    HW253583   4.692   8.089   5.968
16246SOL     OW53584   3.878   8.286   6.320
16246SOL    HW153585   3.931   8.266   6.397
16246SOL    HW253586   3.879   8.382   6.315
16247SOL     OW53587   3.827   9.323   7.110
16247SOL    HW153588   3.734   9.333   7.132
16247SOL    HW253589   3.860   9.412   7.103
16248SOL     OW53590   4.553   7.757   5.775
16248SOL    HW153591   4.605   7.807   5.712
16248SOL    HW253592   4.612   7.741   5.849
16249SOL     OW53593   5.082   8.588   6.188
16249SOL    HW153594   5.166   8.610   6.148
16249SOL    HW253595   5.020   8.650   6.149
16250SOL     OW53596   4.268   7.602   6.503
16250SOL    HW153597   4.293   7.610   6.595
16250SOL    HW253598   4.264   7.692   6.472
16251SOL     OW53599   4.675   8.885   6.044
16251SOL    HW153600   4.645   8.951   5.981
16251SOL    HW253601   4.653   8.921   6.130
16252SOL     OW53602   5.502   8.490   6.405
16252SOL    HW153603   5.545   8.568   6.370
16252SOL    HW253604   5.452   8.523   6.480
16253SOL     OW53605   4.949   9.011   7.094
16253SOL    HW153606   4.923   8.931   7.139
16253SOL    HW253607   4.867   9.045   7.058
16254SOL     OW53608   4.046   8.460   5.770
16254SOL    HW153609   4.141   8.446   5.767
16254SOL    HW253610   4.031   8.537   5.715
16255SOL     OW53611   5.213   8.160   6.340
16255SOL    HW153612   5.230   8.131   6.429
16255SOL    HW253613   5.287   8.216   6.318
16256SOL     OW53614   4.206   8.725   7.330
16256SOL    HW153615   4.185   8.727   7.237
16256SOL    HW253616   4.120   8.728   7.373
16257SOL     OW53617   4.873   9.085   5.818
16257SOL    HW153618   4.921   9.079   5.901
16257SOL    HW253619   4.809   9.155   5.833
16258SOL     OW53620   3.861   7.738   7.092
16258SOL    HW153621   3.863   7.814   7.034
16258SOL    HW253622   3.872   7.774   7.180
16259SOL     OW53623   5.343   8.854   5.699
16259SOL    HW153624   5.303   8.939   5.680
16259SOL    HW253625   5.272   8.791   5.686
16260SOL     OW53626   4.238   9.168   5.911
16260SOL    HW153627   4.244   9.243   5.970
16260SOL    HW253628   4.305   9.184   5.845
16261SOL     OW53629   5.141   7.523   6.052
16261SOL    HW153630   5.132   7.513   5.957
16261SOL    HW253631   5.232   7.548   6.066
16262SOL     OW53632   3.977   9.216   6.797
16262SOL    HW153633   4.030   9.141   6.824
16262SOL    HW253634   3.945   9.193   6.710
16263SOL     OW53635   4.640   9.157   6.473
16263SOL    HW153636   4.732   9.131   6.479
16263SOL    HW253637   4.606   9.109   6.398
16264SOL     OW53638   4.114   8.089   6.044
16264SOL    HW153639   4.132   8.005   6.086
16264SOL    HW253640   4.023   8.107   6.065
16265SOL     OW53641   5.199   7.635   7.298
16265SOL    HW153642   5.212   7.642   7.392
16265SOL    HW253643   5.198   7.726   7.267
16266SOL     OW53644   4.440   7.510   5.616
16266SOL    HW153645   4.494   7.558   5.679
16266SOL    HW253646   4.424   7.573   5.545
16267SOL     OW53647   4.506   7.673   7.418
16267SOL    HW153648   4.587   7.689   7.370
16267SOL    HW253649   4.437   7.705   7.360
16268SOL     OW53650   4.604   8.947   6.745
16268SOL    HW153651   4.589   8.918   6.656
16268SOL    HW253652   4.674   8.890   6.778
16269SOL     OW53653   5.094   7.894   6.993
16269SOL    HW153654   5.125   7.910   7.082
16269SOL    HW253655   5.173   7.903   6.939
16270SOL     OW53656   4.569   8.818   6.487
16270SOL    HW153657   4.643   8.832   6.427
16270SOL    HW253658   4.492   8.834   6.433
16271SOL     OW53659   4.595   7.939   6.458
16271SOL    HW153660   4.604   7.939   6.362
16271SOL    HW253661   4.652   8.010   6.487
16272SOL     OW53662   4.286   7.542   6.062
16272SOL    HW153663   4.216   7.554   6.126
16272SOL    HW253664   4.278   7.616   6.002
16273SOL     OW53665   5.142   8.665   5.668
16273SOL    HW153666   5.166   8.581   5.707
16273SOL    HW253667   5.046   8.665   5.669
16274SOL     OW53668   4.090   7.526   5.717
16274SOL    HW153669   4.162   7.583   5.745
16274SOL    HW253670   4.088   7.457   5.783
16275SOL     OW53671   4.696   7.714   6.013
16275SOL    HW153672   4.670   7.784   6.072
16275SOL    HW253673   4.792   7.719   6.009
16276SOL     OW53674   4.893   9.083   6.341
16276SOL    HW153675   4.897   9.147   6.270
16276SOL    HW253676   4.935   9.126   6.415
16277SOL     OW53677   4.169   8.601   6.282
16277SOL    HW153678   4.090   8.594   6.335
16277SOL    HW253679   4.138   8.595   6.191
16278SOL     OW53680   4.737   7.929   5.635
16278SOL    HW153681   4.708   8.017   5.610
16278SOL    HW253682   4.806   7.945   5.700
16279SOL     OW53683   3.817   7.978   6.931
16279SOL    HW153684   3.911   7.983   6.911
16279SOL    HW253685   3.802   8.051   6.991
16280SOL     OW53686   4.350   7.601   6.763
16280SOL    HW153687   4.422   7.664   6.770
16280SOL    HW253688   4.296   7.618   6.840
16281SOL     OW53689   4.647   7.922   6.185
16281SOL    HW153690   4.586   7.964   6.125
16281SOL    HW253691   4.713   7.988   6.203
16282SOL     OW53692   4.711   7.579   6.329
16282SOL    HW153693   4.721   7.664   6.287
16282SOL    HW253694   4.700   7.599   6.422
16283SOL     OW53695   5.085   8.585   6.470
16283SOL    HW153696   5.092   8.594   6.375
16283SOL    HW253697   5.176   8.584   6.501
16284SOL     OW53698   5.223   8.013   6.591
16284SOL    HW153699   5.134   7.994   6.620
16284SOL    HW253700   5.278   7.994   6.667
16285SOL     OW53701   5.555   8.235   6.002
16285SOL    HW153702   5.620   8.189   6.055
16285SOL    HW253703   5.545   8.181   5.924
16286SOL     OW53704   4.171   8.849   5.674
16286SOL    HW153705   4.144   8.859   5.766
16286SOL    HW253706   4.098   8.885   5.624
16287SOL     OW53707   5.447   8.764   6.220
16287SOL    HW153708   5.501   8.822   6.273
16287SOL    HW253709   5.360   8.803   6.222
16288SOL     OW53710   5.103   8.040   5.644
16288SOL    HW153711   5.059   8.008   5.723
16288SOL    HW253712   5.195   8.046   5.670
16289SOL     OW53713   4.283   7.697   5.829
16289SOL    HW153714   4.374   7.715   5.805
16289SOL    HW253715   4.238   7.780   5.815
16290SOL     OW53716   5.441   8.652   7.160
16290SOL    HW153717   5.535   8.651   7.143
16290SOL    HW253718   5.419   8.745   7.171
16291SOL     OW53719   4.784   8.779   6.877
16291SOL    HW153720   4.705   8.766   6.929
16291SOL    HW253721   4.849   8.723   6.919
16292SOL     OW53722   5.419   8.931   7.177
16292SOL    HW153723   5.367   9.011   7.186
16292SOL    HW253724   5.510   8.959   7.184
16293SOL     OW53725   5.325   8.575   6.614
16293SOL    HW153726   5.337   8.652   6.669
16293SOL    HW253727   5.306   8.504   6.677
16294SOL     OW53728   4.564   7.508   7.048
16294SOL    HW153729   4.593   7.562   6.974
16294SOL    HW253730   4.567   7.566   7.123
16295SOL     OW53731   4.706   8.564   7.339
16295SOL    HW153732   4.615   8.582   7.365
16295SOL    HW253733   4.701   8.487   7.283
16296SOL     OW53734   4.434   8.479   6.016
16296SOL    HW153735   4.419   8.465   6.109
16296SOL    HW253736   4.521   8.443   5.999
16297SOL     OW53737   4.143   8.239   6.887
16297SOL    HW153738   4.210   8.250   6.955
16297SOL    HW253739   4.123   8.145   6.888
16298SOL     OW53740   4.995   7.904   6.731
16298SOL    HW153741   5.019   7.908   6.824
16298SOL    HW253742   4.928   7.972   6.721
16299SOL     OW53743   3.806   8.996   6.941
16299SOL    HW153744   3.769   9.079   6.910
16299SOL    HW253745   3.901   9.007   6.929
16300SOL     OW53746   4.064   8.577   6.031
16300SOL    HW153747   4.046   8.664   5.995
16300SOL    HW253748   4.049   8.517   5.958
16301SOL     OW53749   4.307   7.934   6.399
16301SOL    HW153750   4.310   8.019   6.355
16301SOL    HW253751   4.390   7.930   6.447
16302SOL     OW53752   4.932   8.797   6.073
16302SOL    HW153753   4.985   8.875   6.057
16302SOL    HW253754   4.843   8.822   6.047
16303SOL     OW53755   4.986   8.932   6.740
16303SOL    HW153756   5.052   8.937   6.810
16303SOL    HW253757   4.912   8.887   6.780
16304SOL     OW53758   5.314   8.060   6.089
16304SOL    HW153759   5.263   8.090   6.164
16304SOL    HW253760   5.374   8.132   6.071
16305SOL     OW53761   4.077   8.962   6.881
16305SOL    HW153762   4.069   8.921   6.795
16305SOL    HW253763   4.172   8.969   6.895
16306SOL     OW53764   4.191   8.150   7.277
16306SOL    HW153765   4.229   8.201   7.206
16306SOL    HW253766   4.266   8.106   7.318
16307SOL     OW53767   4.763   7.486   7.319
16307SOL    HW153768   4.775   7.581   7.330
16307SOL    HW253769   4.839   7.459   7.268
16308SOL     OW53770   4.227   7.479   7.334
16308SOL    HW153771   4.172   7.450   7.261
16308SOL    HW253772   4.199   7.568   7.351
16309SOL     OW53773   4.290   8.352   6.640
16309SOL    HW153774   4.339   8.429   6.611
16309SOL    HW253775   4.261   8.375   6.729
16310SOL     OW53776   4.930   7.942   5.837
16310SOL    HW153777   4.953   7.876   5.903
16310SOL    HW253778   4.894   8.014   5.888
16311SOL     OW53779   4.035   7.597   6.892
16311SOL    HW153780   4.080   7.650   6.957
16311SOL    HW253781   3.943   7.624   6.898
16312SOL     OW53782   3.805   8.731   6.854
16312SOL    HW153783   3.824   8.678   6.932
16312SOL    HW253784   3.797   8.820   6.887
16313SOL     OW53785   4.452   8.134   6.669
16313SOL    HW153786   4.520   8.143   6.602
16313SOL    HW253787   4.398   8.212   6.660
16314SOL     OW53788   4.047   7.510   6.217
16314SOL    HW153789   4.010   7.594   6.242
16314SOL    HW253790   4.059   7.463   6.300
16315SOL     OW53791   5.344   7.850   5.917
16315SOL    HW153792   5.358   7.777   5.977
16315SOL    HW253793   5.323   7.924   5.974
16316SOL     OW53794   4.711   8.994   7.287
16316SOL    HW153795   4.688   9.047   7.210
16316SOL    HW253796   4.742   8.911   7.252
16317SOL     OW53797   4.051   8.281   7.480
16317SOL    HW153798   4.120   8.331   7.524
16317SOL    HW253799   4.095   8.241   7.405
16318SOL     OW53800   5.254   7.701   5.696
16318SOL    HW153801   5.208   7.634   5.748
16318SOL    HW253802   5.289   7.761   5.762
16319SOL     OW53803   4.989   8.287   5.587
16319SOL    HW153804   5.033   8.202   5.590
16319SOL    HW253805   5.025   8.329   5.508
16320SOL     OW53806   4.802   8.823   6.323
16320SOL    HW153807   4.846   8.804   6.240
16320SOL    HW253808   4.828   8.913   6.343
16321SOL     OW53809   4.039   8.265   6.542
16321SOL    HW153810   4.125   8.294   6.573
16321SOL    HW253811   4.039   8.171   6.556
16322SOL     OW53812   4.038   7.982   6.546
16322SOL    HW153813   4.020   7.896   6.585
16322SOL    HW253814   4.127   7.974   6.512
16323SOL     OW53815   4.810   7.750   7.348
16323SOL    HW153816   4.749   7.765   7.276
16323SOL    HW253817   4.808   7.831   7.399
16324SOL     OW53818   4.878   7.606   7.032
16324SOL    HW153819   4.910   7.690   7.065
16324SOL    HW253820   4.802   7.629   6.979
16325SOL     OW53821   3.619   8.749   5.833
16325SOL    HW153822   3.683   8.820   5.822
16325SOL    HW253823   3.558   8.760   5.760
16326SOL     OW53824   3.830   9.186   6.558
16326SOL    HW153825   3.810   9.124   6.488
16326SOL    HW253826   3.834   9.271   6.514
16327SOL     OW53827   4.212   9.033   6.466
16327SOL    HW153828   4.257   9.116   6.448
16327SOL    HW253829   4.264   8.968   6.419
16328SOL     OW53830   3.740   7.983   6.641
16328SOL    HW153831   3.825   8.000   6.600
16328SOL    HW253832   3.757   7.989   6.735
16329SOL     OW53833   3.992   7.977   7.192
16329SOL    HW153834   4.060   8.034   7.229
16329SOL    HW253835   3.914   8.032   7.187
16330SOL     OW53836   5.007   8.337   7.180
16330SOL    HW153837   5.069   8.411   7.183
16330SOL    HW253838   4.979   8.332   7.089
16331SOL     OW53839   4.530   8.008   5.947
16331SOL    HW153840   4.517   7.939   5.883
16331SOL    HW253841   4.460   8.071   5.928
16332SOL     OW53842   3.950   9.035   7.370
16332SOL    HW153843   3.931   9.093   7.443
16332SOL    HW253844   3.972   8.951   7.411
16333SOL     OW53845   4.291   7.915   6.710
16333SOL    HW153846   4.369   7.862   6.728
16333SOL    HW253847   4.326   8.001   6.687
16334SOL     OW53848   4.694   9.096   7.015
16334SOL    HW153849   4.655   9.062   6.934
16334SOL    HW253850   4.680   9.191   7.010
16335SOL     OW53851   4.165   7.937   5.764
16335SOL    HW153852   4.230   8.008   5.773
16335SOL    HW253853   4.090   7.967   5.814
16336SOL     OW53854   3.887   8.563   7.071
16336SOL    HW153855   3.873   8.520   7.155
16336SOL    HW253856   3.899   8.491   7.009
16337SOL     OW53857   5.037   8.298   5.861
16337SOL    HW153858   4.954   8.298   5.909
16337SOL    HW253859   5.011   8.299   5.769
16338SOL     OW53860   5.443   9.174   6.647
16338SOL    HW153861   5.526   9.205   6.611
16338SOL    HW253862   5.444   9.079   6.631
16339SOL     OW53863   4.951   9.174   6.600
16339SOL    HW153864   5.038   9.214   6.588
16339SOL    HW253865   4.967   9.097   6.653
16340SOL     OW53866   3.803   8.743   6.581
16340SOL    HW153867   3.811   8.731   6.675
16340SOL    HW253868   3.721   8.791   6.569
16341SOL     OW53869   4.401   9.138   7.316
16341SOL    HW153870   4.333   9.205   7.314
16341SOL    HW253871   4.482   9.186   7.298
16342SOL     OW53872   5.406   7.611   6.054
16342SOL    HW153873   5.479   7.615   5.992
16342SOL    HW253874   5.448   7.607   6.140
16343SOL     OW53875   5.072   9.036   6.049
16343SOL    HW153876   5.148   9.064   5.998
16343SOL    HW253877   5.039   9.117   6.089
16344SOL     OW53878   5.004   8.330   6.280
16344SOL    HW153879   5.085   8.281   6.289
16344SOL    HW253880   5.030   8.412   6.238
16345SOL     OW53881   4.533   8.748   7.007
16345SOL    HW153882   4.517   8.775   7.097
16345SOL    HW253883   4.471   8.800   6.955
16346SOL     OW53884   4.427   8.983   5.678
16346SOL    HW153885   4.422   9.035   5.597
16346SOL    HW253886   4.343   8.936   5.682
16347SOL     OW53887   5.354   9.146   6.909
16347SOL    HW153888   5.375   9.184   6.823
16347SOL    HW253889   5.339   9.222   6.965
16348SOL     OW53890   5.543   7.599   6.559
16348SOL    HW153891   5.573   7.514   6.528
16348SOL    HW253892   5.455   7.609   6.522
16349SOL     OW53893   3.954   7.739   6.338
16349SOL    HW153894   3.874   7.788   6.316
16349SOL    HW253895   3.956   7.738   6.433
16350SOL     OW53896   4.968   9.062   5.558
16350SOL    HW153897   4.922   9.076   5.641
16350SOL    HW253898   4.940   9.134   5.502
16351SOL     OW53899   4.477   8.469   6.951
16351SOL    HW153900   4.561   8.425   6.945
16351SOL    HW253901   4.499   8.561   6.964
16352SOL     OW53902   4.674   8.377   5.945
16352SOL    HW153903   4.696   8.404   5.856
16352SOL    HW253904   4.716   8.291   5.955
16353SOL     OW53905   5.229   9.095   5.646
16353SOL    HW153906   5.136   9.090   5.625
16353SOL    HW253907   5.272   9.110   5.562
16354SOL     OW53908   4.098   8.750   7.082
16354SOL    HW153909   4.080   8.823   7.022
16354SOL    HW253910   4.020   8.695   7.078
16355SOL     OW53911   5.354   8.771   6.810
16355SOL    HW153912   5.436   8.770   6.859
16355SOL    HW253913   5.293   8.820   6.865
16356SOL     OW53914   4.717   8.557   6.347
16356SOL    HW153915   4.741   8.649   6.350
16356SOL    HW253916   4.677   8.545   6.261
16357SOL     OW53917   4.676   7.704   6.572
16357SOL    HW153918   4.643   7.783   6.528
16357SOL    HW253919   4.653   7.717   6.664
16358SOL     OW53920   4.324   8.958   6.087
16358SOL    HW153921   4.358   8.892   6.027
16358SOL    HW253922   4.294   9.029   6.029
16359SOL     OW53923   3.983   8.817   5.923
16359SOL    HW153924   3.922   8.867   5.868
16359SOL    HW253925   3.971   8.853   6.011
16360SOL     OW53926   3.841   8.389   7.301
16360SOL    HW153927   3.761   8.415   7.346
16360SOL    HW253928   3.904   8.373   7.371
16361SOL     OW53929   3.781   7.755   5.577
16361SOL    HW153930   3.747   7.805   5.651
16361SOL    HW253931   3.730   7.785   5.502
16362SOL     OW53932   3.725   7.638   5.877
16362SOL    HW153933   3.663   7.700   5.837
16362SOL    HW253934   3.805   7.688   5.889
16363SOL     OW53935   4.846   8.676   5.727
16363SOL    HW153936   4.781   8.726   5.679
16363SOL    HW253937   4.867   8.730   5.804
16364SOL     OW53938   4.351   8.269   7.081
16364SOL    HW153939   4.371   8.347   7.029
16364SOL    HW253940   4.428   8.256   7.137
16365SOL     OW53941   5.203   9.272   6.550
16365SOL    HW153942   5.225   9.356   6.511
16365SOL    HW253943   5.284   9.241   6.589
16366SOL     OW53944   5.172   8.567   7.198
16366SOL    HW153945   5.160   8.595   7.288
16366SOL    HW253946   5.260   8.596   7.174
16367SOL     OW53947   4.059   9.186   7.163
16367SOL    HW153948   3.979   9.228   7.132
16367SOL    HW253949   4.029   9.123   7.228
16368SOL     OW53950   4.967   7.745   6.036
16368SOL    HW153951   5.031   7.674   6.041
16368SOL    HW253952   4.985   7.799   6.113
16369SOL     OW53953   4.314   8.167   6.255
16369SOL    HW153954   4.343   8.257   6.272
16369SOL    HW253955   4.247   8.176   6.187
16370SOL     OW53956   5.521   7.778   7.199
16370SOL    HW153957   5.486   7.788   7.110
16370SOL    HW253958   5.492   7.857   7.245
16371SOL     OW53959   5.517   8.381   7.075
16371SOL    HW153960   5.474   8.464   7.092
16371SOL    HW253961   5.561   8.393   6.990
16372SOL     OW53962   4.638   8.817   5.604
16372SOL    HW153963   4.576   8.873   5.651
16372SOL    HW253964   4.653   8.861   5.521
16373SOL     OW53965   4.379   9.270   6.433
16373SOL    HW153966   4.360   9.339   6.497
16373SOL    HW253967   4.460   9.230   6.465
16374SOL     OW53968   4.767   8.408   5.689
16374SOL    HW153969   4.786   8.502   5.694
16374SOL    HW253970   4.842   8.371   5.642
16375SOL     OW53971   5.578   8.977   6.357
16375SOL    HW153972   5.523   9.033   6.303
16375SOL    HW253973   5.528   8.964   6.438
16376SOL     OW53974   3.961   8.762   7.447
16376SOL    HW153975   3.877   8.745   7.405
16376SOL    HW253976   3.942   8.763   7.540
16377SOL     OW53977   3.787   8.664   6.201
16377SOL    HW153978   3.845   8.628   6.268
16377SOL    HW253979   3.825   8.749   6.179
16378SOL     OW53980   4.434   8.863   7.241
16378SOL    HW153981   4.349   8.830   7.270
16378SOL    HW253982   4.430   8.957   7.259
16379SOL     OW53983   5.577   7.613   6.830
16379SOL    HW153984   5.531   7.683   6.876
16379SOL    HW253985   5.557   7.629   6.737
16380SOL     OW53986   4.156   7.848   6.181
16380SOL    HW153987   4.218   7.875   6.249
16380SOL    HW253988   4.080   7.815   6.229
16381SOL     OW53989   5.419   8.900   6.576
16381SOL    HW153990   5.330   8.897   6.540
16381SOL    HW253991   5.411   8.865   6.665
16382SOL     OW53992   4.088   7.962   6.884
16382SOL    HW153993   4.117   7.906   6.955
16382SOL    HW253994   4.151   7.946   6.814
16383SOL     OW53995   4.547   9.051   6.235
16383SOL    HW153996   4.570   9.132   6.189
16383SOL    HW253997   4.466   9.022   6.193
16384SOL     OW53998   5.202   7.694   6.718
16384SOL    HW153999   5.259   7.760   6.759
16384SOL    HW254000   5.113   7.726   6.734
16385SOL     OW54001   4.631   7.447   6.667
16385SOL    HW154002   4.621   7.462   6.761
16385SOL    HW254003   4.656   7.532   6.632
16386SOL     OW54004   4.441   8.752   5.950
16386SOL    HW154005   4.440   8.658   5.969
16386SOL    HW254006   4.531   8.779   5.969
16387SOL     OW54007   4.364   8.947   6.879
16387SOL    HW154008   4.350   9.028   6.927
16387SOL    HW254009   4.441   8.963   6.826
16388SOL     OW54010   5.061   7.516   5.790
16388SOL    HW154011   5.012   7.568   5.726
16388SOL    HW254012   5.000   7.447   5.817
16389SOL     OW54013   5.002   7.887   6.263
16389SOL    HW154014   4.962   7.974   6.271
16389SOL    HW254015   4.987   7.845   6.347
16390SOL     OW54016   5.284   7.624   6.468
16390SOL    HW154017   5.251   7.653   6.554
16390SOL    HW254018   5.286   7.704   6.415
16391SOL     OW54019   3.775   8.548   5.929
16391SOL    HW154020   3.720   8.620   5.896
16391SOL    HW254021   3.794   8.573   6.019
16392SOL     OW54022   4.550   9.083   5.907
16392SOL    HW154023   4.509   9.062   5.823
16392SOL    HW254024   4.606   9.159   5.888
16393SOL     OW54025   3.902   8.042   7.537
16393SOL    HW154026   3.816   8.060   7.575
16393SOL    HW254027   3.941   8.128   7.522
16394SOL     OW54028   3.952   7.746   8.373
16394SOL    HW154029   3.980   7.818   8.429
16394SOL    HW254030   3.869   7.718   8.411
16395SOL     OW54031   3.675   7.835   8.073
16395SOL    HW154032   3.600   7.849   8.132
16395SOL    HW254033   3.638   7.844   7.985
16396SOL     OW54034   4.276   8.730   8.652
16396SOL    HW154035   4.202   8.771   8.608
16396SOL    HW254036   4.297   8.789   8.724
16397SOL     OW54037   5.234   8.875   8.119
16397SOL    HW154038   5.195   8.916   8.196
16397SOL    HW254039   5.198   8.924   8.045
16398SOL     OW54040   4.831   8.151   8.150
16398SOL    HW154041   4.874   8.233   8.123
16398SOL    HW254042   4.790   8.172   8.234
16399SOL     OW54043   5.506   7.942   7.751
16399SOL    HW154044   5.478   7.972   7.665
16399SOL    HW254045   5.442   7.978   7.812
16400SOL     OW54046   4.470   8.668   8.467
16400SOL    HW154047   4.409   8.700   8.533
16400SOL    HW254048   4.517   8.747   8.437
16401SOL     OW54049   4.374   8.416   8.072
16401SOL    HW154050   4.440   8.444   8.136
16401SOL    HW254051   4.291   8.436   8.114
16402SOL     OW54052   4.082   8.861   8.507
16402SOL    HW154053   4.001   8.837   8.462
16402SOL    HW254054   4.122   8.926   8.450
16403SOL     OW54055   5.179   8.958   8.822
16403SOL    HW154056   5.234   9.036   8.831
16403SOL    HW254057   5.107   8.972   8.883
16404SOL     OW54058   4.224   7.750   8.981
16404SOL    HW154059   4.227   7.845   8.981
16404SOL    HW254060   4.171   7.728   9.058
16405SOL     OW54061   5.329   7.900   8.195
16405SOL    HW154062   5.322   7.953   8.115
16405SOL    HW254063   5.272   7.944   8.257
16406SOL     OW54064   4.087   9.098   7.934
16406SOL    HW154065   4.059   9.170   7.989
16406SOL    HW254066   4.108   9.138   7.850
16407SOL     OW54067   4.866   8.673   9.126
16407SOL    HW154068   4.883   8.735   9.197
16407SOL    HW254069   4.806   8.609   9.163
16408SOL     OW54070   4.001   8.826   7.992
16408SOL    HW154071   4.022   8.919   7.986
16408SOL    HW254072   3.942   8.820   8.068
16409SOL     OW54073   4.272   9.205   8.918
16409SOL    HW154074   4.182   9.238   8.925
16409SOL    HW254075   4.326   9.284   8.910
16410SOL     OW54076   4.303   8.398   7.586
16410SOL    HW154077   4.345   8.452   7.519
16410SOL    HW254078   4.330   8.438   7.669
16411SOL     OW54079   5.308   7.606   8.803
16411SOL    HW154080   5.358   7.681   8.770
16411SOL    HW254081   5.315   7.612   8.898
16412SOL     OW54082   3.808   8.085   8.054
16412SOL    HW154083   3.764   8.004   8.081
16412SOL    HW254084   3.793   8.146   8.126
16413SOL     OW54085   5.592   9.209   7.770
16413SOL    HW154086   5.668   9.193   7.826
16413SOL    HW254087   5.591   9.304   7.758
16414SOL     OW54088   3.726   9.196   7.549
16414SOL    HW154089   3.693   9.161   7.467
16414SOL    HW254090   3.673   9.152   7.616
16415SOL     OW54091   5.411   8.290   8.058
16415SOL    HW154092   5.452   8.330   8.135
16415SOL    HW254093   5.412   8.358   7.992
16416SOL     OW54094   5.404   8.529   7.895
16416SOL    HW154095   5.489   8.546   7.854
16416SOL    HW254096   5.406   8.580   7.976
16417SOL     OW54097   3.828   8.203   9.031
16417SOL    HW154098   3.883   8.236   9.102
16417SOL    HW254099   3.769   8.275   9.010
16418SOL     OW54100   4.317   8.872   8.142
16418SOL    HW154101   4.277   8.790   8.168
16418SOL    HW254102   4.302   8.877   8.048
16419SOL     OW54103   4.983   8.687   8.884
16419SOL    HW154104   5.075   8.676   8.908
16419SOL    HW254105   4.936   8.683   8.966
16420SOL     OW54106   4.568   7.463   8.001
16420SOL    HW154107   4.608   7.534   7.950
16420SOL    HW254108   4.475   7.484   8.003
16421SOL     OW54109   3.906   8.399   8.636
16421SOL    HW154110   3.931   8.382   8.545
16421SOL    HW254111   3.872   8.488   8.635
16422SOL     OW54112   5.292   8.461   7.644
16422SOL    HW154113   5.228   8.394   7.666
16422SOL    HW254114   5.333   8.484   7.728
16423SOL     OW54115   4.933   9.288   9.096
16423SOL    HW154116   4.927   9.357   9.030
16423SOL    HW254117   4.953   9.209   9.047
16424SOL     OW54118   4.089   7.700   9.254
16424SOL    HW154119   4.147   7.764   9.296
16424SOL    HW254120   4.004   7.714   9.297
16425SOL     OW54121   5.177   8.875   8.416
16425SOL    HW154122   5.109   8.894   8.481
16425SOL    HW254123   5.156   8.786   8.386
16426SOL     OW54124   5.465   9.202   8.050
16426SOL    HW154125   5.468   9.143   7.974
16426SOL    HW254126   5.481   9.144   8.125
16427SOL     OW54127   4.305   8.143   7.725
16427SOL    HW154128   4.322   8.219   7.669
16427SOL    HW254129   4.259   8.179   7.801
16428SOL     OW54130   5.336   9.100   7.740
16428SOL    HW154131   5.419   9.147   7.749
16428SOL    HW254132   5.313   9.109   7.647
16429SOL     OW54133   4.758   8.284   8.960
16429SOL    HW154134   4.676   8.251   8.995
16429SOL    HW254135   4.755   8.379   8.977
16430SOL     OW54136   4.661   7.865   8.734
16430SOL    HW154137   4.693   7.897   8.818
16430SOL    HW254138   4.566   7.856   8.746
16431SOL     OW54139   4.763   8.128   7.877
16431SOL    HW154140   4.784   8.135   7.970
16431SOL    HW254141   4.680   8.080   7.875
16432SOL     OW54142   3.773   8.272   8.247
16432SOL    HW154143   3.852   8.302   8.293
16432SOL    HW254144   3.710   8.344   8.259
16433SOL     OW54145   4.587   7.811   7.645
16433SOL    HW154146   4.652   7.868   7.604
16433SOL    HW254147   4.542   7.769   7.572
16434SOL     OW54148   5.090   8.577   7.923
16434SOL    HW154149   5.182   8.597   7.905
16434SOL    HW254150   5.043   8.655   7.894
16435SOL     OW54151   4.257   7.610   8.350
16435SOL    HW154152   4.251   7.635   8.442
16435SOL    HW254153   4.260   7.693   8.303
16436SOL     OW54154   4.754   8.956   7.980
16436SOL    HW154155   4.803   9.036   7.999
16436SOL    HW254156   4.677   8.961   8.036
16437SOL     OW54157   4.081   9.259   8.332
16437SOL    HW154158   4.129   9.178   8.347
16437SOL    HW254159   4.138   9.328   8.365
16438SOL     OW54160   5.479   8.436   8.293
16438SOL    HW154161   5.471   8.518   8.245
16438SOL    HW254162   5.446   8.457   8.380
16439SOL     OW54163   4.947   9.018   8.962
16439SOL    HW154164   4.917   8.969   9.039
16439SOL    HW254165   4.866   9.050   8.922
16440SOL     OW54166   5.164   8.205   8.148
16440SOL    HW154167   5.144   8.220   8.240
16440SOL    HW254168   5.253   8.238   8.138
16441SOL     OW54169   4.207   8.655   9.184
16441SOL    HW154170   4.191   8.698   9.099
16441SOL    HW254171   4.129   8.601   9.199
16442SOL     OW54172   4.885   9.148   7.717
16442SOL    HW154173   4.790   9.151   7.723
16442SOL    HW254174   4.902   9.110   7.631
16443SOL     OW54175   3.928   7.684   9.030
16443SOL    HW154176   3.916   7.778   9.033
16443SOL    HW254177   3.980   7.663   9.107
16444SOL     OW54178   5.356   8.844   7.514
16444SOL    HW154179   5.320   8.931   7.495
16444SOL    HW254180   5.288   8.783   7.486
16445SOL     OW54181   4.227   9.230   7.723
16445SOL    HW154182   4.254   9.275   7.803
16445SOL    HW254183   4.290   9.259   7.657
16446SOL     OW54184   5.079   7.545   7.880
16446SOL    HW154185   5.042   7.543   7.792
16446SOL    HW254186   5.151   7.608   7.875
16447SOL     OW54187   3.921   9.201   8.732
16447SOL    HW154188   3.945   9.252   8.809
16447SOL    HW254189   3.828   9.218   8.719
16448SOL     OW54190   4.755   9.186   8.235
16448SOL    HW154191   4.744   9.209   8.327
16448SOL    HW254192   4.673   9.145   8.210
16449SOL     OW54193   4.029   8.158   7.912
16449SOL    HW154194   4.095   8.089   7.920
16449SOL    HW254195   3.955   8.127   7.964
16450SOL     OW54196   4.411   7.454   7.541
16450SOL    HW154197   4.446   7.543   7.530
16450SOL    HW254198   4.327   7.456   7.496
16451SOL     OW54199   4.436   7.653   9.229
16451SOL    HW154200   4.513   7.678   9.281
16451SOL    HW254201   4.381   7.731   9.230
16452SOL     OW54202   4.618   9.013   8.632
16452SOL    HW154203   4.597   8.982   8.544
16452SOL    HW254204   4.679   8.948   8.667
16453SOL     OW54205   5.188   7.983   8.799
16453SOL    HW154206   5.226   7.942   8.877
16453SOL    HW254207   5.180   8.075   8.822
16454SOL     OW54208   4.599   8.896   8.380
16454SOL    HW154209   4.687   8.864   8.361
16454SOL    HW254210   4.575   8.947   8.303
16455SOL     OW54211   4.677   7.911   8.382
16455SOL    HW154212   4.660   7.911   8.288
16455SOL    HW254213   4.599   7.951   8.421
16456SOL     OW54214   4.292   7.507   7.948
16456SOL    HW154215   4.215   7.503   8.004
16456SOL    HW254216   4.279   7.586   7.895
16457SOL     OW54217   5.162   8.634   7.471
16457SOL    HW154218   5.211   8.574   7.528
16457SOL    HW254219   5.079   8.648   7.517
16458SOL     OW54220   4.089   7.520   7.616
16458SOL    HW154221   4.095   7.587   7.548
16458SOL    HW254222   4.122   7.564   7.695
16459SOL     OW54223   4.691   7.644   7.839
16459SOL    HW154224   4.648   7.702   7.776
16459SOL    HW254225   4.764   7.695   7.873
16460SOL     OW54226   4.794   7.981   8.944
16460SOL    HW154227   4.771   8.072   8.961
16460SOL    HW254228   4.828   7.949   9.028
16461SOL     OW54229   4.981   9.022   8.236
16461SOL    HW154230   4.908   9.085   8.234
16461SOL    HW254231   5.038   9.054   8.305
16462SOL     OW54232   4.775   7.963   7.514
16462SOL    HW154233   4.734   8.046   7.490
16462SOL    HW254234   4.842   7.987   7.577
16463SOL     OW54235   3.813   8.036   8.812
16463SOL    HW154236   3.902   8.006   8.798
16463SOL    HW254237   3.819   8.098   8.884
16464SOL     OW54238   4.245   7.666   8.616
16464SOL    HW154239   4.298   7.734   8.659
16464SOL    HW254240   4.166   7.659   8.671
16465SOL     OW54241   4.554   7.897   8.130
16465SOL    HW154242   4.463   7.889   8.159
16465SOL    HW254243   4.548   7.935   8.042
16466SOL     OW54244   4.755   7.462   8.210
16466SOL    HW154245   4.685   7.476   8.146
16466SOL    HW254246   4.743   7.532   8.275
16467SOL     OW54247   5.181   8.618   8.304
16467SOL    HW154248   5.102   8.595   8.254
16467SOL    HW254249   5.246   8.638   8.237
16468SOL     OW54250   5.156   7.994   8.385
16468SOL    HW154251   5.222   7.999   8.453
16468SOL    HW254252   5.106   8.076   8.394
16469SOL     OW54253   5.602   8.237   7.795
16469SOL    HW154254   5.649   8.216   7.876
16469SOL    HW254255   5.578   8.151   7.759
16470SOL     OW54256   4.197   8.861   7.616
16470SOL    HW154257   4.109   8.848   7.652
16470SOL    HW254258   4.197   8.813   7.534
16471SOL     OW54259   5.408   8.666   8.138
16471SOL    HW154260   5.502   8.683   8.131
16471SOL    HW254261   5.367   8.752   8.128
16472SOL     OW54262   5.149   7.994   7.519
16472SOL    HW154263   5.104   8.011   7.601
16472SOL    HW254264   5.240   8.021   7.535
16473SOL     OW54265   4.217   7.717   7.777
16473SOL    HW154266   4.225   7.776   7.702
16473SOL    HW254267   4.191   7.774   7.849
16474SOL     OW54268   5.460   8.698   8.969
16474SOL    HW154269   5.547   8.659   8.965
16474SOL    HW254270   5.476   8.789   8.995
16475SOL     OW54271   4.778   8.800   8.745
16475SOL    HW154272   4.702   8.793   8.802
16475SOL    HW254273   4.851   8.766   8.797
16476SOL     OW54274   5.339   9.090   9.106
16476SOL    HW154275   5.326   9.133   9.022
16476SOL    HW254276   5.416   9.034   9.093
16477SOL     OW54277   4.860   8.623   8.543
16477SOL    HW154278   4.831   8.683   8.612
16477SOL    HW254279   4.854   8.674   8.463
16478SOL     OW54280   5.322   8.543   8.530
16478SOL    HW154281   5.335   8.619   8.587
16478SOL    HW254282   5.275   8.577   8.454
16479SOL     OW54283   4.687   7.548   8.800
16479SOL    HW154284   4.606   7.571   8.846
16479SOL    HW254285   4.753   7.607   8.837
16480SOL     OW54286   4.718   8.499   9.282
16480SOL    HW154287   4.666   8.570   9.319
16480SOL    HW254288   4.653   8.442   9.240
16481SOL     OW54289   4.435   8.494   7.812
16481SOL    HW154290   4.412   8.468   7.901
16481SOL    HW254291   4.511   8.439   7.790
16482SOL     OW54292   4.960   7.883   8.683
16482SOL    HW154293   5.040   7.924   8.716
16482SOL    HW254294   4.921   7.842   8.759
16483SOL     OW54295   3.771   8.960   8.744
16483SOL    HW154296   3.701   9.021   8.720
16483SOL    HW254297   3.850   9.013   8.739
16484SOL     OW54298   4.075   8.529   7.965
16484SOL    HW154299   4.061   8.624   7.962
16484SOL    HW254300   4.076   8.508   8.058
16485SOL     OW54301   4.278   7.901   8.234
16485SOL    HW154302   4.299   7.988   8.200
16485SOL    HW254303   4.222   7.917   8.310
16486SOL     OW54304   4.944   8.814   7.844
16486SOL    HW154305   5.016   8.877   7.841
16486SOL    HW254306   4.894   8.837   7.922
16487SOL     OW54307   4.997   8.935   8.617
16487SOL    HW154308   5.060   8.942   8.689
16487SOL    HW254309   4.919   8.896   8.656
16488SOL     OW54310   5.320   8.043   7.948
16488SOL    HW154311   5.229   8.072   7.955
16488SOL    HW254312   5.371   8.119   7.975
16489SOL     OW54313   4.069   8.960   8.768
16489SOL    HW154314   4.068   8.934   8.676
16489SOL    HW254315   4.047   9.054   8.767
16490SOL     OW54316   5.315   8.260   9.122
16490SOL    HW154317   5.223   8.281   9.104
16490SOL    HW254318   5.363   8.301   9.050
16491SOL     OW54319   4.806   7.553   9.207
16491SOL    HW154320   4.738   7.582   9.268
16491SOL    HW254321   4.863   7.629   9.196
16492SOL     OW54322   4.155   7.435   9.199
16492SOL    HW154323   4.161   7.531   9.204
16492SOL    HW254324   4.111   7.410   9.280
16493SOL     OW54325   5.032   8.239   8.402
16493SOL    HW154326   4.937   8.247   8.391
16493SOL    HW254327   5.054   8.305   8.468
16494SOL     OW54328   4.951   7.983   7.731
16494SOL    HW154329   4.948   7.907   7.789
16494SOL    HW254330   4.901   8.050   7.777
16495SOL     OW54331   3.998   7.680   8.760
16495SOL    HW154332   4.018   7.772   8.740
16495SOL    HW254333   3.997   7.676   8.855
16496SOL     OW54334   3.841   8.693   8.709
16496SOL    HW154335   3.856   8.665   8.799
16496SOL    HW254336   3.813   8.784   8.717
16497SOL     OW54337   4.505   8.055   8.540
16497SOL    HW154338   4.468   8.114   8.474
16497SOL    HW254339   4.498   8.104   8.622
16498SOL     OW54340   5.507   8.309   9.302
16498SOL    HW154341   5.430   8.307   9.245
16498SOL    HW254342   5.479   8.359   9.379
16499SOL     OW54343   4.041   7.492   8.073
16499SOL    HW154344   4.004   7.580   8.072
16499SOL    HW254345   4.039   7.466   8.165
16500SOL     OW54346   5.272   7.746   7.855
16500SOL    HW154347   5.338   7.702   7.907
16500SOL    HW254348   5.277   7.838   7.882
16501SOL     OW54349   4.742   8.228   8.416
16501SOL    HW154350   4.752   8.259   8.506
16501SOL    HW254351   4.650   8.245   8.395
16502SOL     OW54352   4.714   9.029   9.157
16502SOL    HW154353   4.700   9.064   9.069
16502SOL    HW254354   4.627   9.022   9.195
16503SOL     OW54355   5.566   8.949   9.021
16503SOL    HW154356   5.593   8.990   8.938
16503SOL    HW254357   5.641   8.962   9.079
16504SOL     OW54358   5.200   7.717   7.577
16504SOL    HW154359   5.184   7.806   7.547
16504SOL    HW254360   5.240   7.727   7.664
16505SOL     OW54361   5.005   8.242   7.441
16505SOL    HW154362   5.047   8.156   7.444
16505SOL    HW254363   5.011   8.269   7.349
16506SOL     OW54364   4.846   8.792   8.320
16506SOL    HW154365   4.841   8.725   8.253
16506SOL    HW254366   4.900   8.861   8.281
16507SOL     OW54367   4.089   8.014   8.434
16507SOL    HW154368   4.008   8.061   8.414
16507SOL    HW254369   4.159   8.077   8.418
16508SOL     OW54370   4.924   7.814   9.180
16508SOL    HW154371   4.872   7.862   9.244
16508SOL    HW254372   5.014   7.821   9.212
16509SOL     OW54373   4.945   7.676   8.928
16509SOL    HW154374   4.918   7.727   9.005
16509SOL    HW254375   5.041   7.680   8.929
16510SOL     OW54376   3.708   8.724   7.607
16510SOL    HW154377   3.624   8.769   7.615
16510SOL    HW254378   3.684   8.632   7.591
16511SOL     OW54379   3.802   9.246   8.313
16511SOL    HW154380   3.768   9.157   8.317
16511SOL    HW254381   3.895   9.237   8.334
16512SOL     OW54382   4.240   9.034   8.356
16512SOL    HW154383   4.314   9.092   8.375
16512SOL    HW254384   4.270   8.983   8.280
16513SOL     OW54385   4.731   8.203   8.695
16513SOL    HW154386   4.772   8.229   8.777
16513SOL    HW254387   4.639   8.228   8.705
16514SOL     OW54388   3.765   8.069   8.543
16514SOL    HW154389   3.798   8.153   8.510
16514SOL    HW254390   3.792   8.067   8.635
16515SOL     OW54391   3.945   7.950   9.072
16515SOL    HW154392   4.038   7.970   9.064
16515SOL    HW254393   3.902   8.035   9.077
16516SOL     OW54394   5.080   8.377   9.031
16516SOL    HW154395   5.114   8.466   9.039
16516SOL    HW254396   4.988   8.384   9.057
16517SOL     OW54397   4.523   7.989   7.852
16517SOL    HW154398   4.536   7.923   7.785
16517SOL    HW254399   4.450   8.043   7.820
16518SOL     OW54400   5.354   8.040   8.574
16518SOL    HW154401   5.312   8.006   8.653
16518SOL    HW254402   5.378   8.130   8.597
16519SOL     OW54403   3.941   8.974   9.184
16519SOL    HW154404   3.918   9.063   9.212
16519SOL    HW254405   4.005   8.944   9.248
16520SOL     OW54406   4.383   7.881   8.720
16520SOL    HW154407   4.333   7.939   8.778
16520SOL    HW254408   4.405   7.936   8.645
16521SOL     OW54409   4.698   9.111   8.891
16521SOL    HW154410   4.640   9.078   8.822
16521SOL    HW254411   4.694   9.206   8.882
16522SOL     OW54412   4.171   7.932   7.589
16522SOL    HW154413   4.223   8.001   7.632
16522SOL    HW254414   4.083   7.969   7.583
16523SOL     OW54415   3.894   8.578   8.967
16523SOL    HW154416   3.931   8.560   9.053
16523SOL    HW254417   3.906   8.496   8.918
16524SOL     OW54418   5.058   8.436   8.593
16524SOL    HW154419   5.136   8.490   8.586
16524SOL    HW254420   4.985   8.498   8.585
16525SOL     OW54421   5.085   8.290   7.707
16525SOL    HW154422   5.016   8.323   7.764
16525SOL    HW254423   5.043   8.278   7.622
16526SOL     OW54424   5.479   9.161   8.597
16526SOL    HW154425   5.526   9.224   8.543
16526SOL    HW254426   5.468   9.084   8.541
16527SOL     OW54427   4.956   9.182   8.491
16527SOL    HW154428   5.041   9.225   8.485
16527SOL    HW254429   4.973   9.102   8.541
16528SOL     OW54430   3.832   8.730   8.435
16528SOL    HW154431   3.848   8.704   8.526
16528SOL    HW254432   3.747   8.775   8.438
16529SOL     OW54433   4.395   9.073   9.144
16529SOL    HW154434   4.361   9.112   9.224
16529SOL    HW254435   4.349   9.118   9.073
16530SOL     OW54436   5.460   7.581   7.982
16530SOL    HW154437   5.518   7.580   7.906
16530SOL    HW254438   5.456   7.490   8.011
16531SOL     OW54439   5.132   9.010   7.896
16531SOL    HW154440   5.207   9.033   7.841
16531SOL    HW254441   5.088   9.094   7.913
16532SOL     OW54442   3.832   9.216   9.289
16532SOL    HW154443   3.788   9.152   9.345
16532SOL    HW254444   3.892   9.262   9.349
16533SOL     OW54445   4.969   8.371   8.053
16533SOL    HW154446   5.043   8.314   8.074
16533SOL    HW254447   5.009   8.443   8.003
16534SOL     OW54448   4.549   8.770   8.897
16534SOL    HW154449   4.533   8.768   8.992
16534SOL    HW254450   4.486   8.834   8.864
16535SOL     OW54451   4.416   9.025   7.568
16535SOL    HW154452   4.402   9.075   7.487
16535SOL    HW254453   4.330   8.990   7.590
16536SOL     OW54454   5.339   9.184   8.838
16536SOL    HW154455   5.388   9.178   8.756
16536SOL    HW254456   5.330   9.278   8.854
16537SOL     OW54457   5.553   7.573   8.369
16537SOL    HW154458   5.591   7.634   8.305
16537SOL    HW254459   5.461   7.597   8.373
16538SOL     OW54460   3.937   7.746   8.103
16538SOL    HW154461   3.847   7.778   8.089
16538SOL    HW254462   3.949   7.749   8.198
16539SOL     OW54463   4.915   9.033   7.471
16539SOL    HW154464   4.983   8.992   7.417
16539SOL    HW254465   4.841   9.044   7.411
16540SOL     OW54466   4.567   8.529   8.753
16540SOL    HW154467   4.650   8.555   8.713
16540SOL    HW254468   4.548   8.597   8.817
16541SOL     OW54469   4.647   8.337   7.725
16541SOL    HW154470   4.717   8.382   7.678
16541SOL    HW254471   4.693   8.272   7.778
16542SOL     OW54472   5.264   9.110   7.468
16542SOL    HW154473   5.183   9.161   7.464
16542SOL    HW254474   5.321   9.151   7.403
16543SOL     OW54475   4.126   8.749   8.940
16543SOL    HW154476   4.115   8.832   8.892
16543SOL    HW254477   4.038   8.712   8.942
16544SOL     OW54478   5.339   8.756   8.712
16544SOL    HW154479   5.393   8.735   8.788
16544SOL    HW254480   5.275   8.819   8.745
16545SOL     OW54481   4.809   8.568   8.169
16545SOL    HW154482   4.724   8.534   8.197
16545SOL    HW254483   4.852   8.495   8.125
16546SOL     OW54484   4.700   7.639   8.443
16546SOL    HW154485   4.706   7.725   8.401
16546SOL    HW254486   4.666   7.658   8.531
16547SOL     OW54487   4.291   8.914   7.872
16547SOL    HW154488   4.264   8.892   7.782
16547SOL    HW254489   4.231   8.984   7.898
16548SOL     OW54490   5.478   7.836   8.787
16548SOL    HW154491   5.418   7.845   8.861
16548SOL    HW254492   5.537   7.910   8.794
16549SOL     OW54493   3.948   8.804   7.720
16549SOL    HW154494   3.855   8.786   7.706
16549SOL    HW254495   3.958   8.808   7.815
16550SOL     OW54496   4.449   7.593   8.949
16550SOL    HW154497   4.377   7.653   8.931
16550SOL    HW254498   4.463   7.601   9.043
16551SOL     OW54499   3.854   7.793   7.403
16551SOL    HW154500   3.764   7.792   7.369
16551SOL    HW254501   3.864   7.879   7.444
16552SOL     OW54502   5.157   8.266   8.791
16552SOL    HW154503   5.106   8.318   8.730
16552SOL    HW254504   5.132   8.299   8.878
16553SOL     OW54505   3.700   7.622   7.783
16553SOL    HW154506   3.631   7.687   7.774
16553SOL    HW254507   3.775   7.660   7.738
16554SOL     OW54508   4.456   8.218   8.758
16554SOL    HW154509   4.493   8.227   8.846
16554SOL    HW254510   4.373   8.174   8.772
16555SOL     OW54511   5.221   9.258   8.450
16555SOL    HW154512   5.242   9.344   8.414
16555SOL    HW254513   5.275   9.251   8.528
16556SOL     OW54514   5.203   8.624   9.055
16556SOL    HW154515   5.190   8.645   9.148
16556SOL    HW254516   5.291   8.656   9.035
16557SOL     OW54517   5.397   8.306   8.660
16557SOL    HW154518   5.318   8.292   8.714
16557SOL    HW254519   5.379   8.385   8.611
16558SOL     OW54520   4.922   7.778   7.923
16558SOL    HW154521   4.978   7.701   7.933
16558SOL    HW254522   4.936   7.828   8.004
16559SOL     OW54523   4.311   8.144   8.108
16559SOL    HW154524   4.344   8.225   8.069
16559SOL    HW254525   4.293   8.167   8.200
16560SOL     OW54526   5.440   8.405   8.928
16560SOL    HW154527   5.434   8.500   8.932
16560SOL    HW254528   5.459   8.386   8.836
16561SOL     OW54529   4.635   8.869   7.532
16561SOL    HW154530   4.553   8.916   7.546
16561SOL    HW254531   4.668   8.900   7.448
16562SOL     OW54532   4.435   9.227   8.384
16562SOL    HW154533   4.384   9.308   8.382
16562SOL    HW254534   4.517   9.252   8.427
16563SOL     OW54535   4.557   8.486   8.274
16563SOL    HW154536   4.527   8.408   8.322
16563SOL    HW254537   4.540   8.559   8.333
16564SOL     OW54538   4.837   8.435   7.552
16564SOL    HW154539   4.802   8.494   7.485
16564SOL    HW254540   4.892   8.375   7.504
16565SOL     OW54541   5.544   9.013   8.250
16565SOL    HW154542   5.632   8.977   8.247
16565SOL    HW254543   5.501   8.965   8.322
16566SOL     OW54544   3.844   8.623   8.178
16566SOL    HW154545   3.833   8.662   8.265
16566SOL    HW254546   3.913   8.557   8.190
16567SOL     OW54547   4.450   8.804   9.158
16567SOL    HW154548   4.369   8.756   9.176
16567SOL    HW254549   4.423   8.896   9.152
16568SOL     OW54550   5.626   7.611   8.744
16568SOL    HW154551   5.609   7.571   8.829
16568SOL    HW254552   5.578   7.693   8.745
16569SOL     OW54553   4.140   7.887   7.977
16569SOL    HW154554   4.196   7.911   8.051
16569SOL    HW254555   4.064   7.845   8.018
16570SOL     OW54556   5.439   8.897   8.486
16570SOL    HW154557   5.349   8.900   8.453
16570SOL    HW254558   5.431   8.857   8.572
16571SOL     OW54559   4.056   7.943   8.707
16571SOL    HW154560   4.119   7.992   8.760
16571SOL    HW254561   4.073   7.971   8.617
16572SOL     OW54562   4.540   9.036   8.135
16572SOL    HW154563   4.521   9.113   8.082
16572SOL    HW254564   4.458   8.987   8.137
16573SOL     OW54565   5.142   7.661   8.589
16573SOL    HW154566   5.187   7.647   8.673
16573SOL    HW254567   5.077   7.729   8.607
16574SOL     OW54568   4.752   7.398   8.573
16574SOL    HW154569   4.733   7.430   8.661
16574SOL    HW254570   4.750   7.477   8.519
16575SOL     OW54571   4.522   8.764   7.815
16575SOL    HW154572   4.491   8.674   7.812
16575SOL    HW254573   4.446   8.815   7.841
16576SOL     OW54574   4.381   8.962   8.793
16576SOL    HW154575   4.327   9.027   8.837
16576SOL    HW254576   4.431   9.012   8.729
16577SOL     OW54577   4.980   7.552   7.614
16577SOL    HW154578   5.061   7.596   7.591
16577SOL    HW254579   4.911   7.612   7.584
16578SOL     OW54580   4.986   7.918   8.151
16578SOL    HW154581   4.932   7.997   8.149
16578SOL    HW254582   5.042   7.929   8.228
16579SOL     OW54583   5.296   7.667   8.351
16579SOL    HW154584   5.239   7.690   8.424
16579SOL    HW254585   5.297   7.745   8.296
16580SOL     OW54586   3.784   8.552   7.904
16580SOL    HW154587   3.791   8.592   7.991
16580SOL    HW254588   3.696   8.577   7.874
16581SOL     OW54589   4.613   9.095   7.747
16581SOL    HW154590   4.539   9.091   7.687
16581SOL    HW254591   4.584   9.151   7.818
16582SOL     OW54592   3.996   8.069   9.403
16582SOL    HW154593   3.985   8.126   9.479
16582SOL    HW254594   3.994   8.129   9.328
16583SOL     OW54595   3.960   9.161   9.796
16583SOL    HW154596   3.970   9.244   9.843
16583SOL    HW254597   4.034   9.158   9.736
16584SOL     OW54598   3.860   8.910   9.858
16584SOL    HW154599   3.908   8.991   9.840
16584SOL    HW254600   3.784   8.939   9.909
16585SOL     OW54601   3.866   8.034   9.950
16585SOL    HW154602   3.837   8.068   9.865
16585SOL    HW254603   3.852   8.107   0.011
16586SOL     OW54604   5.545   9.217   9.606
16586SOL    HW154605   5.618   9.201   9.666
16586SOL    HW254606   5.556   9.308   9.579
16587SOL     OW54607   3.738   9.035   9.462
16587SOL    HW154608   3.731   8.941   9.478
16587SOL    HW254609   3.721   9.075   9.547
16588SOL     OW54610   5.412   8.293   9.863
16588SOL    HW154611   5.463   8.284   9.943
16588SOL    HW254612   5.416   8.387   9.843
16589SOL     OW54613   5.446   8.548   9.769
16589SOL    HW154614   5.499   8.526   9.692
16589SOL    HW254615   5.492   8.621   9.810
16590SOL     OW54616   4.359   8.741   9.945
16590SOL    HW154617   4.410   8.662   9.929
16590SOL    HW254618   4.397   8.806   9.885
16591SOL     OW54619   4.480   7.503   9.695
16591SOL    HW154620   4.557   7.559   9.684
16591SOL    HW254621   4.426   7.548   9.760
16592SOL     OW54622   5.137   8.438   9.514
16592SOL    HW154623   5.192   8.363   9.540
16592SOL    HW254624   5.146   8.500   9.587
16593SOL     OW54625   4.350   8.207   9.561
16593SOL    HW154626   4.439   8.188   9.530
16593SOL    HW254627   4.360   8.281   9.620
16594SOL     OW54628   5.282   9.104   9.627
16594SOL    HW154629   5.369   9.144   9.632
16594SOL    HW254630   5.263   9.099   9.533
16595SOL     OW54631   3.816   8.276   0.086
16595SOL    HW154632   3.900   8.295   0.127
16595SOL    HW254633   3.755   8.339   0.126
16596SOL     OW54634   4.655   7.695   9.389
16596SOL    HW154635   4.688   7.784   9.378
16596SOL    HW254636   4.652   7.682   9.483
16597SOL     OW54637   5.106   8.603   9.729
16597SOL    HW154638   5.153   8.599   9.812
16597SOL    HW254639   5.023   8.560   9.746
16598SOL     OW54640   4.077   9.337   0.185
16598SOL    HW154641   4.099   9.263   0.242
16598SOL    HW254642   4.161   9.377   0.164
16599SOL     OW54643   4.879   9.223   9.527
16599SOL    HW154644   4.785   9.240   9.530
16599SOL    HW254645   4.889   9.161   9.454
16600SOL     OW54646   5.356   8.837   9.394
16600SOL    HW154647   5.316   8.923   9.385
16600SOL    HW254648   5.286   8.775   9.371
16601SOL     OW54649   4.183   9.192   9.636
16601SOL    HW154650   4.248   9.240   9.687
16601SOL    HW254651   4.236   9.136   9.578
16602SOL     OW54652   5.218   7.500   9.801
16602SOL    HW154653   5.229   7.548   9.719
16602SOL    HW254654   5.301   7.512   9.847
16603SOL     OW54655   4.126   8.134   9.702
16603SOL    HW154656   4.203   8.151   9.647
16603SOL    HW254657   4.059   8.193   9.667
16604SOL     OW54658   4.443   7.429   9.405
16604SOL    HW154659   4.441   7.469   9.492
16604SOL    HW254660   4.430   7.502   9.345
16605SOL     OW54661   5.150   8.657   9.330
16605SOL    HW154662   5.151   8.578   9.385
16605SOL    HW254663   5.063   8.694   9.344
16606SOL     OW54664   4.009   7.400   9.427
16606SOL    HW154665   4.026   7.467   9.493
16606SOL    HW254666   3.983   7.322   9.477
16607SOL     OW54667   4.700   7.672   9.668
16607SOL    HW154668   4.643   7.749   9.660
16607SOL    HW254669   4.784   7.707   9.697
16608SOL     OW54670   4.156   8.554   9.988
16608SOL    HW154671   4.208   8.630   9.962
16608SOL    HW254672   4.103   8.534   9.911
16609SOL     OW54673   4.997   9.285   9.903
16609SOL    HW154674   5.045   9.345   9.846
16609SOL    HW254675   4.906   9.312   9.896
16610SOL     OW54676   4.773   7.943   9.379
16610SOL    HW154677   4.701   8.004   9.399
16610SOL    HW254678   4.830   7.948   9.456
16611SOL     OW54679   4.620   7.948   9.901
16611SOL    HW154680   4.530   7.918   9.887
16611SOL    HW254681   4.646   7.986   9.817
16612SOL     OW54682   5.563   8.189   9.587
16612SOL    HW154683   5.606   8.158   9.666
16612SOL    HW254684   5.470   8.192   9.609
16613SOL     OW54685   4.127   8.857   9.382
16613SOL    HW154686   4.084   8.822   9.460
16613SOL    HW254687   4.154   8.779   9.333
16614SOL     OW54688   4.469   8.401   9.735
16614SOL    HW154689   4.528   8.460   9.782
16614SOL    HW254690   4.515   8.382   9.653
16615SOL     OW54691   3.992   8.515   9.757
16615SOL    HW154692   4.006   8.583   9.691
16615SOL    HW254693   3.959   8.440   9.708
16616SOL     OW54694   5.284   8.222   9.632
16616SOL    HW154695   5.314   8.244   9.720
16616SOL    HW254696   5.239   8.138   9.642
16617SOL     OW54697   5.253   7.629   9.559
16617SOL    HW154698   5.224   7.683   9.485
16617SOL    HW254699   5.335   7.669   9.587
16618SOL     OW54700   3.709   8.756   9.520
16618SOL    HW154701   3.637   8.783   9.462
16618SOL    HW254702   3.669   8.695   9.581
16619SOL     OW54703   4.533   7.876   9.614
16619SOL    HW154704   4.554   7.966   9.589
16619SOL    HW254705   4.467   7.885   9.683
16620SOL     OW54706   4.215   7.899   9.393
16620SOL    HW154707   4.282   7.941   9.447
16620SOL    HW254708   4.140   7.958   9.396
16621SOL     OW54709   5.454   7.507   9.947
16621SOL    HW154710   5.519   7.578   9.948
16621SOL    HW254711   5.429   7.496   0.038
16622SOL     OW54712   5.061   9.039   9.784
16622SOL    HW154713   5.136   9.056   9.727
16622SOL    HW254714   5.028   9.126   9.807
16623SOL     OW54715   4.335   9.030   9.471
16623SOL    HW154716   4.270   8.966   9.440
16623SOL    HW254717   4.402   8.977   9.514
16624SOL     OW54718   4.939   9.045   9.319
16624SOL    HW154719   4.926   8.952   9.336
16624SOL    HW254720   4.869   9.068   9.257
16625SOL     OW54721   5.213   9.089   9.353
16625SOL    HW154722   5.121   9.078   9.332
16625SOL    HW254723   5.256   9.099   9.268
16626SOL     OW54724   3.971   8.765   9.610
16626SOL    HW154725   3.885   8.766   9.568
16626SOL    HW254726   3.960   8.819   9.688
16627SOL     OW54727   3.840   7.785   9.356
16627SOL    HW154728   3.773   7.791   9.288
16627SOL    HW254729   3.869   7.875   9.369
16628SOL     OW54730   3.785   7.599   9.575
16628SOL    HW154731   3.798   7.663   9.505
16628SOL    HW254732   3.873   7.580   9.607
16629SOL     OW54733   4.898   8.778   9.387
16629SOL    HW154734   4.803   8.769   9.376
16629SOL    HW254735   4.910   8.793   9.481
16630SOL     OW54736   4.938   7.766   9.793
16630SOL    HW154737   5.012   7.745   9.736
16630SOL    HW254738   4.929   7.861   9.786
16631SOL     OW54739   4.272   8.184   9.945
16631SOL    HW154740   4.342   8.249   9.943
16631SOL    HW254741   4.222   8.200   9.866
16632SOL     OW54742   4.627   8.754   9.365
16632SOL    HW154743   4.584   8.793   9.442
16632SOL    HW254744   4.568   8.773   9.293
16633SOL     OW54745   3.795   8.644   9.904
16633SOL    HW154746   3.825   8.735   9.895
16633SOL    HW254747   3.867   8.592   9.870
16634SOL     OW54748   5.134   7.383   9.507
16634SOL    HW154749   5.169   7.472   9.520
16634SOL    HW254750   5.040   7.392   9.523
16635SOL     OW54751   3.904   9.617   0.987
16635SOL    HW154752   3.915   9.697   1.039
16635SOL    HW254753   3.833   9.569   1.031
16636SOL     OW54754   3.693   9.687   0.626
16636SOL    HW154755   3.615   9.690   0.681
16636SOL    HW254756   3.679   9.613   0.567
16637SOL     OW54757   5.525   9.819   0.167
16637SOL    HW154758   5.532   9.906   0.207
16637SOL    HW254759   5.446   9.781   0.207
16638SOL     OW54760   4.068   9.715   1.581
16638SOL    HW154761   4.109   9.760   1.507
16638SOL    HW254762   4.019   9.643   1.541
16639SOL     OW54763   5.297   9.463   1.456
16639SOL    HW154764   5.358   9.534   1.435
16639SOL    HW254765   5.268   9.482   1.545
16640SOL     OW54766   3.738   9.960   0.573
16640SOL    HW154767   3.730   9.867   0.594
16640SOL    HW254768   3.829   9.980   0.594
16641SOL     OW54769   4.536   9.316   0.544
16641SOL    HW154770   4.577   9.394   0.505
16641SOL    HW254771   4.442   9.335   0.542
16642SOL     OW54772   4.025   9.543   1.793
16642SOL    HW154773   4.065   9.607   1.734
16642SOL    HW254774   3.942   9.583   1.818
16643SOL     OW54775   5.050   9.700   0.904
16643SOL    HW154776   4.979   9.681   0.965
16643SOL    HW254777   5.066   9.794   0.916
16644SOL     OW54778   4.547   9.916   1.461
16644SOL    HW154779   4.540   0.006   1.429
16644SOL    HW254780   4.518   9.862   1.387
16645SOL     OW54781   5.149   9.794   1.649
16645SOL    HW154782   5.185   9.840   1.725
16645SOL    HW254783   5.147   9.702   1.675
16646SOL     OW54784   4.756   9.722   1.203
16646SOL    HW154785   4.665   9.743   1.222
16646SOL    HW254786   4.752   9.671   1.122
16647SOL     OW54787   4.817   0.048   0.390
16647SOL    HW154788   4.889   0.012   0.441
16647SOL    HW254789   4.749   9.980   0.393
16648SOL     OW54790   4.583   9.640   0.199
16648SOL    HW154791   4.577   9.685   0.115
16648SOL    HW254792   4.583   9.547   0.177
16649SOL     OW54793   5.326   9.929   1.825
16649SOL    HW154794   5.321   0.015   1.785
16649SOL    HW254795   5.382   9.878   1.766
16650SOL     OW54796   4.254   9.467   0.855
16650SOL    HW154797   4.259   9.512   0.939
16650SOL    HW254798   4.249   9.537   0.791
16651SOL     OW54799   3.914   9.504   1.500
16651SOL    HW154800   3.843   9.490   1.437
16651SOL    HW254801   3.879   9.472   1.583
16652SOL     OW54802   5.143   9.375   0.440
16652SOL    HW154803   5.132   9.360   0.346
16652SOL    HW254804   5.233   9.406   0.449
16653SOL     OW54805   5.208   9.526   1.720
16653SOL    HW154806   5.221   9.530   1.815
16653SOL    HW254807   5.141   9.459   1.708
16654SOL     OW54808   4.323   9.427   0.099
16654SOL    HW154809   4.413   9.403   0.117
16654SOL    HW254810   4.317   9.431   0.003
16655SOL     OW54811   4.463   9.554   1.760
16655SOL    HW154812   4.555   9.542   1.783
16655SOL    HW254813   4.454   9.648   1.745
16656SOL     OW54814   5.143   9.889   1.394
16656SOL    HW154815   5.139   9.859   1.484
16656SOL    HW254816   5.150   9.985   1.401
16657SOL     OW54817   4.664   9.821   0.908
16657SOL    HW154818   4.622   9.804   0.824
16657SOL    HW254819   4.699   9.736   0.934
16658SOL     OW54820   4.271   9.380   0.507
16658SOL    HW154821   4.188   9.386   0.554
16658SOL    HW254822   4.274   9.458   0.452
16659SOL     OW54823   4.657   9.541   0.447
16659SOL    HW154824   4.619   9.580   0.368
16659SOL    HW254825   4.752   9.546   0.433
16660SOL     OW54826   4.812   9.931   1.533
16660SOL    HW154827   4.725   9.918   1.496
16660SOL    HW254828   4.843   0.013   1.493
16661SOL     OW54829   4.818   9.892   0.080
16661SOL    HW154830   4.734   9.848   0.063
16661SOL    HW254831   4.837   9.872   0.171
16662SOL     OW54832   4.291   9.515   1.140
16662SOL    HW154833   4.239   9.481   1.213
16662SOL    HW254834   4.253   9.602   1.123
16663SOL     OW54835   4.584   9.792   0.649
16663SOL    HW154836   4.559   9.880   0.622
16663SOL    HW254837   4.586   9.742   0.568
16664SOL     OW54838   4.756   9.419   0.710
16664SOL    HW154839   4.760   9.502   0.662
16664SOL    HW254840   4.673   9.379   0.682
16665SOL     OW54841   4.261   9.588   0.331
16665SOL    HW154842   4.286   9.555   0.245
16665SOL    HW254843   4.201   9.660   0.313
16666SOL     OW54844   4.680   9.368   1.392
16666SOL    HW154845   4.696   9.371   1.298
16666SOL    HW254846   4.750   9.420   1.431
16667SOL     OW54847   4.998   9.666   1.315
16667SOL    HW154848   5.044   9.747   1.336
16667SOL    HW254849   4.914   9.695   1.279
16668SOL     OW54850   4.323   9.848   0.844
16668SOL    HW154851   4.300   9.788   0.773
16668SOL    HW254852   4.288   9.933   0.815
16669SOL     OW54853   4.728   9.489   1.819
16669SOL    HW154854   4.773   9.559   1.772
16669SOL    HW254855   4.778   9.410   1.800
16670SOL     OW54856   4.205   9.336   1.734
16670SOL    HW154857   4.255   9.378   1.663
16670SOL    HW254858   4.128   9.392   1.745
16671SOL     OW54859   5.004   9.777   0.286
16671SOL    HW154860   4.966   9.699   0.324
16671SOL    HW254861   5.012   9.839   0.359
16672SOL     OW54862   4.116   9.410   1.334
16672SOL    HW154863   4.054   9.457   1.390
16672SOL    HW254864   4.061   9.360   1.274
16673SOL     OW54865   4.496   0.017   1.092
16673SOL    HW154866   4.519   9.980   1.007
16673SOL    HW254867   4.542   0.101   1.094
16674SOL     OW54868   4.011   9.369   0.611
16674SOL    HW154869   3.981   9.457   0.635
16674SOL    HW254870   4.022   9.324   0.695
16675SOL     OW54871   5.315   9.691   0.309
16675SOL    HW154872   5.348   9.652   0.389
16675SOL    HW254873   5.237   9.740   0.336
16676SOL     OW54874   5.298   9.501   0.106
16676SOL    HW154875   5.218   9.456   0.132
16676SOL    HW254876   5.306   9.573   0.168
16677SOL     OW54877   4.045   9.987   0.914
16677SOL    HW154878   4.069   0.077   0.936
16677SOL    HW254879   3.994   9.957   0.989
16678SOL     OW54880   4.206   9.765   1.077
16678SOL    HW154881   4.115   9.792   1.078
16678SOL    HW254882   4.242   9.803   0.997
16679SOL     OW54883   4.841   9.704   1.690
16679SOL    HW154884   4.824   9.750   1.773
16679SOL    HW254885   4.847   9.774   1.625
16680SOL     OW54886   4.898   9.499   1.511
16680SOL    HW154887   4.877   9.570   1.573
16680SOL    HW254888   4.942   9.543   1.439
16681SOL     OW54889   3.868   9.883   1.664
16681SOL    HW154890   3.944   9.831   1.639
16681SOL    HW254891   3.903   9.955   1.715
16682SOL     OW54892   4.595   9.887   0.324
16682SOL    HW154893   4.582   9.800   0.286
16682SOL    HW254894   4.507   9.915   0.350
16683SOL     OW54895   5.353   9.879   1.217
16683SOL    HW154896   5.280   9.881   1.278
16683SOL    HW254897   5.315   9.905   1.133
16684SOL     OW54898   4.482   9.777   1.228
16684SOL    HW154899   4.420   9.716   1.187
16684SOL    HW254900   4.475   9.856   1.175
16685SOL     OW54901   4.599   9.376   0.121
16685SOL    HW154902   4.599   9.378   0.025
16685SOL    HW254903   4.679   9.329   0.144
16686SOL     OW54904   5.463   9.502   0.481
16686SOL    HW154905   5.524   9.497   0.407
16686SOL    HW254906   5.475   9.419   0.528
16687SOL     OW54907   5.541   9.500   0.906
16687SOL    HW154908   5.568   9.408   0.914
16687SOL    HW254909   5.445   9.497   0.913
16688SOL     OW54910   3.946   9.617   0.716
16688SOL    HW154911   3.862   9.652   0.685
16688SOL    HW254912   3.939   9.619   0.812
16689SOL     OW54913   4.768   9.559   0.972
16689SOL    HW154914   4.774   9.523   0.883
16689SOL    HW254915   4.760   9.483   1.029
16690SOL     OW54916   5.467   9.685   1.393
16690SOL    HW154917   5.424   9.752   1.339
16690SOL    HW254918   5.500   9.621   1.329
16691SOL     OW54919   4.442   9.377   1.548
16691SOL    HW154920   4.515   9.387   1.488
16691SOL    HW254921   4.450   9.452   1.608
16692SOL     OW54922   3.785   9.568   0.013
16692SOL    HW154923   3.692   9.572   0.039
16692SOL    HW254924   3.806   9.658   9.987
16693SOL     OW54925   3.813   9.412   0.245
16693SOL    HW154926   3.799   9.472   0.172
16693SOL    HW254927   3.907   9.391   0.241
16694SOL     OW54928   4.444   9.821   1.706
16694SOL    HW154929   4.382   9.890   1.729
16694SOL    HW254930   4.484   9.852   1.624
16695SOL     OW54931   4.930   9.555   0.433
16695SOL    HW154932   5.003   9.494   0.442
16695SOL    HW254933   4.935   9.609   0.513
16696SOL     OW54934   5.445   9.693   1.680
16696SOL    HW154935   5.460   9.697   1.586
16696SOL    HW254936   5.367   9.638   1.690
16697SOL     OW54937   4.870   0.229   0.075
16697SOL    HW154938   4.870   0.323   0.057
16697SOL    HW254939   4.947   0.214   0.129
16698SOL     OW54940   5.520   9.502   1.196
16698SOL    HW154941   5.483   9.415   1.186
16698SOL    HW254942   5.532   9.533   1.106
16699SOL     OW54943   4.211   9.670   0.658
16699SOL    HW154944   4.219   9.688   0.564
16699SOL    HW254945   4.116   9.665   0.673
16700SOL     OW54946   4.127   9.824   1.339
16700SOL    HW154947   4.054   9.833   1.279
16700SOL    HW254948   4.204   9.813   1.282
16701SOL     OW54949   5.183   9.497   1.201
16701SOL    HW154950   5.226   9.467   1.281
16701SOL    HW254951   5.115   9.557   1.230
16702SOL     OW54952   4.746   9.316   1.115
16702SOL    HW154953   4.677   9.257   1.085
16702SOL    HW254954   4.828   9.270   1.095
16703SOL     OW54955   5.071   9.343   0.172
16703SOL    HW154956   5.071   9.321   0.078
16703SOL    HW254957   4.983   9.323   0.201
16704SOL     OW54958   4.939   9.714   0.647
16704SOL    HW154959   4.958   9.801   0.611
16704SOL    HW254960   4.973   9.717   0.737
16705SOL     OW54961   5.260   9.510   0.939
16705SOL    HW154962   5.244   9.504   1.034
16705SOL    HW254963   5.199   9.576   0.908
16706SOL     OW54964   3.944   9.558   2.820
16706SOL    HW154965   3.981   9.567   2.908
16706SOL    HW254966   3.851   9.541   2.835
16707SOL     OW54967   3.706   9.703   2.524
16707SOL    HW154968   3.629   9.734   2.572
16707SOL    HW254969   3.673   9.632   2.469
16708SOL     OW54970   5.411   9.882   2.088
16708SOL    HW154971   5.375   9.896   2.000
16708SOL    HW254972   5.506   9.877   2.074
16709SOL     OW54973   4.156   9.607   3.383
16709SOL    HW154974   4.248   9.583   3.378
16709SOL    HW254975   4.146   9.677   3.318
16710SOL     OW54976   5.352   9.754   2.592
16710SOL    HW154977   5.321   9.791   2.510
16710SOL    HW254978   5.309   9.806   2.660
16711SOL     OW54979   5.298   9.452   3.329
16711SOL    HW154980   5.359   9.522   3.306
16711SOL    HW254981   5.257   9.482   3.410
16712SOL     OW54982   3.839   9.968   2.527
16712SOL    HW154983   3.802   9.880   2.518
16712SOL    HW254984   3.783   0.024   2.473
16713SOL     OW54985   4.535   9.337   2.383
16713SOL    HW154986   4.573   9.417   2.347
16713SOL    HW254987   4.441   9.346   2.365
16714SOL     OW54988   4.081   9.540   3.644
16714SOL    HW154989   4.117   9.579   3.564
16714SOL    HW254990   4.019   9.605   3.677
16715SOL     OW54991   5.040   9.645   2.823
16715SOL    HW154992   4.950   9.615   2.808
16715SOL    HW254993   5.068   9.601   2.903
16716SOL     OW54994   4.562   9.881   3.326
16716SOL    HW154995   4.563   9.972   3.294
16716SOL    HW254996   4.523   9.831   3.254
16717SOL     OW54997   5.097   9.838   3.579
16717SOL    HW154998   5.038   9.889   3.635
16717SOL    HW254999   5.184   9.869   3.604
16718SOL     OW55000   4.734   9.708   3.079
16718SOL    HW155001   4.643   9.717   3.110
16718SOL    HW255002   4.732   9.740   2.990
16719SOL     OW55003   4.789   9.959   2.368
16719SOL    HW155004   4.806  10.000   2.453
16719SOL    HW255005   4.694   9.945   2.367
16720SOL     OW55006   4.633   9.645   2.038
16720SOL    HW155007   4.681   9.718   1.999
16720SOL    HW255008   4.654   9.570   1.981
16721SOL     OW55009   5.347   9.925   3.655
16721SOL    HW155010   5.374   9.930   3.746
16721SOL    HW255011   5.408   9.863   3.615
16722SOL     OW55012   4.264   9.468   2.823
16722SOL    HW155013   4.275   9.490   2.916
16722SOL    HW255014   4.255   9.553   2.780
16723SOL     OW55015   5.158   9.994   2.579
16723SOL    HW155016   5.178   9.973   2.670
16723SOL    HW255017   5.183   0.086   2.569
16724SOL     OW55018   3.874   9.592   3.406
16724SOL    HW155019   3.850   9.680   3.375
16724SOL    HW255020   3.969   9.588   3.395
16725SOL     OW55021   5.110   9.401   2.323
16725SOL    HW155022   5.092   9.370   2.234
16725SOL    HW255023   5.179   9.466   2.313
16726SOL     OW55024   5.226   9.580   3.571
16726SOL    HW155025   5.239   9.563   3.664
16726SOL    HW255026   5.166   9.655   3.568
16727SOL     OW55027   4.303   9.451   1.969
16727SOL    HW155028   4.366   9.501   1.917
16727SOL    HW255029   4.262   9.392   1.906
16728SOL     OW55030   4.471   9.499   3.603
16728SOL    HW155031   4.563   9.485   3.625
16728SOL    HW255032   4.463   9.594   3.595
16729SOL     OW55033   5.095   9.917   3.305
16729SOL    HW155034   5.089   9.890   3.397
16729SOL    HW255035   5.049   0.001   3.303
16730SOL     OW55036   4.701   9.784   2.811
16730SOL    HW155037   4.661   9.803   2.726
16730SOL    HW255038   4.731   9.694   2.804
16731SOL     OW55039   4.269   9.362   2.321
16731SOL    HW155040   4.194   9.362   2.380
16731SOL    HW255041   4.271   9.450   2.283
16732SOL     OW55042   4.013   9.398   2.024
16732SOL    HW155043   4.020   9.457   1.949
16732SOL    HW255044   4.100   9.400   2.064
16733SOL     OW55045   4.665   9.577   2.311
16733SOL    HW155046   4.634   9.603   2.224
16733SOL    HW255047   4.758   9.601   2.311
16734SOL     OW55048   4.804   9.967   3.453
16734SOL    HW155049   4.730   9.927   3.406
16734SOL    HW255050   4.841   0.029   3.390
16735SOL     OW55051   4.775   9.847   1.920
16735SOL    HW155052   4.750   9.930   1.881
16735SOL    HW255053   4.830   9.871   1.995
16736SOL     OW55054   3.837   9.860   3.317
16736SOL    HW155055   3.838   9.830   3.226
16736SOL    HW255056   3.792   9.945   3.314
16737SOL     OW55057   4.281   9.522   3.093
16737SOL    HW155058   4.319   9.493   3.177
16737SOL    HW255059   4.187   9.523   3.108
16738SOL     OW55060   4.593   9.752   2.547
16738SOL    HW155061   4.554   9.828   2.505
16738SOL    HW255062   4.605   9.689   2.475
16739SOL     OW55063   4.747   9.410   2.551
16739SOL    HW155064   4.758   9.493   2.503
16739SOL    HW255065   4.670   9.370   2.512
16740SOL     OW55066   5.213   9.863   2.813
16740SOL    HW155067   5.143   9.799   2.828
16740SOL    HW255068   5.247   9.882   2.901
16741SOL     OW55069   4.280   9.607   2.200
16741SOL    HW155070   4.284   9.559   2.116
16741SOL    HW255071   4.321   9.691   2.182
16742SOL     OW55072   4.667   9.379   3.240
16742SOL    HW155073   4.680   9.391   3.146
16742SOL    HW255074   4.739   9.427   3.281
16743SOL     OW55075   4.992   9.685   3.175
16743SOL    HW155076   5.021   9.769   3.209
16743SOL    HW255077   4.904   9.701   3.141
16744SOL     OW55078   4.250   9.740   2.752
16744SOL    HW155079   4.255   9.737   2.657
16744SOL    HW255080   4.308   9.812   2.777
16745SOL     OW55081   5.300   9.856   2.337
16745SOL    HW155082   5.257   9.939   2.358
16745SOL    HW255083   5.341   9.871   2.252
16746SOL     OW55084   4.739   9.450   3.662
16746SOL    HW155085   4.790   9.524   3.631
16746SOL    HW255086   4.785   9.373   3.628
16747SOL     OW55087   4.174   9.283   3.600
16747SOL    HW155088   4.150   9.267   3.509
16747SOL    HW255089   4.145   9.372   3.617
16748SOL     OW55090   4.927   9.865   2.154
16748SOL    HW155091   4.944   9.776   2.186
16748SOL    HW255092   4.879   9.907   2.226
16749SOL     OW55093   3.995   9.529   3.108
16749SOL    HW155094   4.010   9.620   3.134
16749SOL    HW255095   3.900   9.517   3.111
16750SOL     OW55096   4.393   9.951   2.920
16750SOL    HW155097   4.481   9.988   2.916
16750SOL    HW255098   4.338   0.019   2.958
16751SOL     OW55099   4.044   9.354   2.483
16751SOL    HW155100   4.013   9.444   2.492
16751SOL    HW255101   4.053   9.322   2.572
16752SOL     OW55102   5.291   9.592   2.261
16752SOL    HW155103   5.375   9.567   2.300
16752SOL    HW255104   5.280   9.684   2.285
16753SOL     OW55105   5.212   9.524   1.994
16753SOL    HW155106   5.148   9.460   2.024
16753SOL    HW255107   5.247   9.563   2.074
16754SOL     OW55108   4.091   0.093   2.820
16754SOL    HW155109   4.097   0.119   2.728
16754SOL    HW255110   4.163   0.141   2.863
16755SOL     OW55111   4.046   9.843   2.917
16755SOL    HW155112   4.100   9.795   2.854
16755SOL    HW255113   4.051   9.934   2.888
16756SOL     OW55114   4.867   9.674   3.567
16756SOL    HW155115   4.813   9.728   3.626
16756SOL    HW255116   4.944   9.728   3.549
16757SOL     OW55117   4.888   9.500   3.354
16757SOL    HW155118   4.873   9.561   3.426
16757SOL    HW255119   4.932   9.551   3.287
16758SOL     OW55120   3.815   9.774   3.055
16758SOL    HW155121   3.884   9.802   2.995
16758SOL    HW255122   3.736   9.816   3.023
16759SOL     OW55123   3.979   9.840   3.558
16759SOL    HW155124   4.063   9.886   3.556
16759SOL    HW255125   3.937   9.863   3.475
16760SOL     OW55126   4.431   9.825   2.125
16760SOL    HW155127   4.497   9.771   2.080
16760SOL    HW255128   4.425   9.904   2.071
16761SOL     OW55129   5.320   9.895   3.067
16761SOL    HW155130   5.286   9.851   3.145
16761SOL    HW255131   5.404   9.853   3.050
16762SOL     OW55132   4.455   9.751   3.103
16762SOL    HW155133   4.391   9.681   3.088
16762SOL    HW255134   4.433   9.817   3.037
16763SOL     OW55135   5.524   9.484   2.368
16763SOL    HW155136   5.563   9.470   2.282
16763SOL    HW255137   5.507   9.396   2.402
16764SOL     OW55138   5.561   9.468   2.825
16764SOL    HW155139   5.585   9.382   2.791
16764SOL    HW255140   5.476   9.486   2.786
16765SOL     OW55141   3.966   9.607   2.551
16765SOL    HW155142   3.884   9.653   2.533
16765SOL    HW255143   3.971   9.602   2.646
16766SOL     OW55144   4.791   9.520   2.803
16766SOL    HW155145   4.774   9.480   2.717
16766SOL    HW255146   4.757   9.457   2.866
16767SOL     OW55147   5.479   9.657   3.260
16767SOL    HW155148   5.533   9.732   3.234
16767SOL    HW255149   5.504   9.587   3.200
16768SOL     OW55150   4.411   9.449   3.336
16768SOL    HW155151   4.499   9.441   3.299
16768SOL    HW255152   4.425   9.466   3.429
16769SOL     OW55153   3.797   9.678   1.854
16769SOL    HW155154   3.731   9.702   1.920
16769SOL    HW255155   3.800   9.754   1.795
16770SOL     OW55156   3.767   9.461   2.145
16770SOL    HW155157   3.729   9.531   2.092
16770SOL    HW255158   3.855   9.448   2.109
16771SOL     OW55159   4.435   9.763   3.545
16771SOL    HW155160   4.364   9.825   3.563
16771SOL    HW255161   4.488   9.807   3.478
16772SOL     OW55162   4.935   9.628   2.322
16772SOL    HW155163   4.996   9.554   2.324
16772SOL    HW255164   4.960   9.682   2.397
16773SOL     OW55165   5.476   9.695   3.540
16773SOL    HW155166   5.489   9.687   3.445
16773SOL    HW255167   5.395   9.646   3.557
16774SOL     OW55168   4.854   0.230   2.014
16774SOL    HW155169   4.868   0.259   1.924
16774SOL    HW255170   4.932   0.179   2.035
16775SOL     OW55171   5.527   9.442   3.095
16775SOL    HW155172   5.538   9.347   3.087
16775SOL    HW255173   5.538   9.476   3.007
16776SOL     OW55174   4.224   9.684   2.477
16776SOL    HW155175   4.239   9.670   2.384
16776SOL    HW255176   4.131   9.666   2.490
16777SOL     OW55177   4.113   9.789   3.177
16777SOL    HW155178   4.136   9.874   3.214
16777SOL    HW255179   4.095   9.807   3.085
16778SOL     OW55180   5.157   9.511   3.039
16778SOL    HW155181   5.234   9.498   3.094
16778SOL    HW255182   5.099   9.566   3.093
16779SOL     OW55183   4.723   9.291   2.960
16779SOL    HW155184   4.683   9.218   3.006
16779SOL    HW255185   4.804   9.255   2.923
16780SOL     OW55186   5.058   9.299   2.077
16780SOL    HW155187   5.120   9.239   2.037
16780SOL    HW255188   4.980   9.246   2.093
16781SOL     OW55189   5.025   9.750   2.547
16781SOL    HW155190   5.057   9.840   2.542
16781SOL    HW255191   5.028   9.729   2.640
16782SOL     OW55192   5.303   9.521   2.734
16782SOL    HW155193   5.228   9.560   2.778
16782SOL    HW255194   5.327   9.584   2.667
16783SOL     OW55195   3.967   9.583   4.681
16783SOL    HW155196   3.994   9.588   4.772
16783SOL    HW255197   3.876   9.555   4.684
16784SOL     OW55198   3.709   9.678   4.359
16784SOL    HW155199   3.645   9.697   4.427
16784SOL    HW255200   3.668   9.609   4.306
16785SOL     OW55201   4.205   9.668   5.152
16785SOL    HW155202   4.272   9.608   5.185
16785SOL    HW255203   4.127   9.647   5.203
16786SOL     OW55204   5.314   9.463   5.154
16786SOL    HW155205   5.348   9.550   5.133
16786SOL    HW255206   5.275   9.473   5.241
16787SOL     OW55207   3.719   9.956   4.297
16787SOL    HW155208   3.726   9.861   4.304
16787SOL    HW255209   3.806   9.988   4.321
16788SOL     OW55210   4.551   9.333   4.203
16788SOL    HW155211   4.588   9.419   4.181
16788SOL    HW255212   4.458   9.350   4.214
16789SOL     OW55213   4.062   9.515   5.561
16789SOL    HW155214   4.047   9.609   5.550
16789SOL    HW255215   4.004   9.473   5.498
16790SOL     OW55216   5.015   9.586   4.715
16790SOL    HW155217   5.000   9.636   4.795
16790SOL    HW255218   5.060   9.507   4.745
16791SOL     OW55219   4.519   9.867   5.160
16791SOL    HW155220   4.522   9.953   5.202
16791SOL    HW255221   4.478   9.883   5.075
16792SOL     OW55222   5.164   9.852   5.539
16792SOL    HW155223   5.117   9.908   5.601
16792SOL    HW255224   5.096   9.815   5.483
16793SOL     OW55225   4.663   9.742   4.957
16793SOL    HW155226   4.634   9.755   5.047
16793SOL    HW255227   4.591   9.776   4.903
16794SOL     OW55228   4.759   9.992   4.143
16794SOL    HW155229   4.759   9.988   4.239
16794SOL    HW255230   4.726   0.080   4.123
16795SOL     OW55231   4.648   9.598   3.881
16795SOL    HW155232   4.677   9.681   3.845
16795SOL    HW255233   4.676   9.532   3.817
16796SOL     OW55234   5.411   9.975   5.562
16796SOL    HW155235   5.389   0.060   5.600
16796SOL    HW255236   5.327   9.933   5.545
16797SOL     OW55237   4.267   9.446   4.638
16797SOL    HW155238   4.261   9.489   4.723
16797SOL    HW255239   4.268   9.517   4.575
16798SOL     OW55240   3.940   9.621   5.239
16798SOL    HW155241   3.852   9.651   5.216
16798SOL    HW255242   3.926   9.539   5.286
16799SOL     OW55243   5.126   9.413   4.204
16799SOL    HW155244   5.116   9.395   4.110
16799SOL    HW255245   5.219   9.427   4.216
16800SOL     OW55246   5.218   9.544   5.406
16800SOL    HW155247   5.226   9.545   5.501
16800SOL    HW255248   5.132   9.582   5.389
16801SOL     OW55249   4.315   9.404   3.822
16801SOL    HW155250   4.381   9.449   3.770
16801SOL    HW255251   4.271   9.347   3.759
16802SOL     OW55252   4.457   9.503   5.494
16802SOL    HW155253   4.540   9.457   5.482
16802SOL    HW255254   4.477   9.574   5.555
16803SOL     OW55255   4.699   9.773   4.562
16803SOL    HW155256   4.634   9.759   4.494
16803SOL    HW255257   4.695   9.694   4.616
16804SOL     OW55258   4.278   9.375   4.212
16804SOL    HW155259   4.201   9.376   4.268
16804SOL    HW255260   4.275   9.458   4.165
16805SOL     OW55261   4.006   9.395   3.872
16805SOL    HW155262   4.044   9.455   3.808
16805SOL    HW255263   4.080   9.369   3.927
16806SOL     OW55264   4.671   9.577   4.153
16806SOL    HW155265   4.659   9.588   4.058
16806SOL    HW255266   4.762   9.601   4.168
16807SOL     OW55267   4.937   9.957   5.247
16807SOL    HW155268   4.877   0.025   5.277
16807SOL    HW255269   4.939   9.967   5.152
16808SOL     OW55270   4.765   9.826   3.778
16808SOL    HW155271   4.729   9.911   3.754
16808SOL    HW255272   4.826   9.845   3.849
16809SOL     OW55273   3.843   9.915   5.144
16809SOL    HW155274   3.937   9.919   5.126
16809SOL    HW255275   3.819   0.005   5.166
16810SOL     OW55276   4.237   9.580   4.876
16810SOL    HW155277   4.282   9.620   4.950
16810SOL    HW255278   4.154   9.549   4.912
16811SOL     OW55279   4.533   9.741   4.346
16811SOL    HW155280   4.506   9.826   4.313
16811SOL    HW255281   4.573   9.698   4.271
16812SOL     OW55282   4.735   9.315   4.428
16812SOL    HW155283   4.681   9.362   4.365
16812SOL    HW255284   4.744   9.376   4.502
16813SOL     OW55285   4.276   9.586   4.036
16813SOL    HW155286   4.293   9.530   3.960
16813SOL    HW255287   4.328   9.664   4.020
16814SOL     OW55288   4.675   9.398   5.119
16814SOL    HW155289   4.705   9.392   5.028
16814SOL    HW255290   4.745   9.446   5.164
16815SOL     OW55291   4.939   9.718   4.957
16815SOL    HW155292   4.961   9.811   4.963
16815SOL    HW255293   4.843   9.718   4.951
16816SOL     OW55294   4.688   9.362   5.477
16816SOL    HW155295   4.711   9.392   5.565
16816SOL    HW255296   4.770   9.327   5.442
16817SOL     OW55297   4.223   9.292   5.471
16817SOL    HW155298   4.161   9.287   5.398
16817SOL    HW255299   4.212   9.381   5.506
16818SOL     OW55300   4.936   9.848   4.001
16818SOL    HW155301   4.951   9.772   4.056
16818SOL    HW255302   4.878   9.904   4.051
16819SOL     OW55303   3.985   9.513   4.975
16819SOL    HW155304   4.000   9.554   5.060
16819SOL    HW255305   3.890   9.508   4.967
16820SOL     OW55306   4.038   9.354   4.352
16820SOL    HW155307   4.010   9.445   4.362
16820SOL    HW255308   4.045   9.320   4.441
16821SOL     OW55309   5.387   9.693   4.051
16821SOL    HW155310   5.365   9.639   4.127
16821SOL    HW255311   5.408   9.779   4.089
16822SOL     OW55312   5.272   9.557   3.840
16822SOL    HW155313   5.241   9.487   3.898
16822SOL    HW255314   5.313   9.620   3.899
16823SOL     OW55315   4.021   0.027   4.641
16823SOL    HW155316   4.082   0.100   4.634
16823SOL    HW255317   4.068   9.961   4.691
16824SOL     OW55318   4.176   9.855   4.793
16824SOL    HW155319   4.216   9.768   4.793
16824SOL    HW255320   4.249   9.916   4.796
16825SOL     OW55321   4.954   9.726   5.393
16825SOL    HW155322   4.892   9.739   5.465
16825SOL    HW255323   4.944   9.804   5.338
16826SOL     OW55324   4.915   9.518   5.206
16826SOL    HW155325   4.921   9.587   5.272
16826SOL    HW255326   4.940   9.560   5.124
16827SOL     OW55327   3.816   9.780   4.896
16827SOL    HW155328   3.886   9.811   4.839
16827SOL    HW255329   3.834   9.824   4.980
16828SOL     OW55330   3.956   9.764   5.482
16828SOL    HW155331   3.955   9.731   5.392
16828SOL    HW255332   3.936   9.857   5.474
16829SOL     OW55333   4.461   9.916   4.000
16829SOL    HW155334   4.554   9.897   3.989
16829SOL    HW255335   4.454   9.949   4.089
16830SOL     OW55336   5.405   9.441   4.203
16830SOL    HW155337   5.469   9.448   4.133
16830SOL    HW255338   5.455   9.450   4.284
16831SOL     OW55339   5.460   9.465   4.724
16831SOL    HW155340   5.506   9.536   4.768
16831SOL    HW255341   5.453   9.494   4.633
16832SOL     OW55342   3.975   9.615   4.405
16832SOL    HW155343   3.886   9.645   4.387
16832SOL    HW255344   3.985   9.622   4.500
16833SOL     OW55345   4.768   9.477   4.651
16833SOL    HW155346   4.849   9.528   4.652
16833SOL    HW255347   4.772   9.426   4.731
16834SOL     OW55348   5.433   9.713   5.086
16834SOL    HW155349   5.395   9.796   5.059
16834SOL    HW255350   5.486   9.685   5.011
16835SOL     OW55351   4.399   9.456   5.220
16835SOL    HW155352   4.488   9.457   5.184
16835SOL    HW255353   4.410   9.473   5.313
16836SOL     OW55354   3.852   9.674   3.727
16836SOL    HW155355   3.804   9.716   3.798
16836SOL    HW255356   3.889   9.747   3.677
16837SOL     OW55357   3.768   9.471   4.006
16837SOL    HW155358   3.755   9.566   4.002
16837SOL    HW255359   3.855   9.458   3.969
16838SOL     OW55360   4.944   9.635   4.196
16838SOL    HW155361   5.005   9.561   4.203
16838SOL    HW255362   4.952   9.680   4.280
16839SOL     OW55363   5.478   9.639   5.357
16839SOL    HW155364   5.459   9.683   5.274
16839SOL    HW255365   5.393   9.606   5.386
16840SOL     OW55366   4.803   0.300   3.795
16840SOL    HW155367   4.804   0.385   3.751
16840SOL    HW255368   4.870   0.307   3.863
16841SOL     OW55369   5.633   9.418   4.989
16841SOL    HW155370   5.727   9.433   4.994
16841SOL    HW255371   5.598   9.497   4.947
16842SOL     OW55372   4.061   9.739   4.151
16842SOL    HW155373   4.133   9.683   4.122
16842SOL    HW255374   4.042   9.710   4.240
16843SOL     OW55375   4.098   9.913   5.048
16843SOL    HW155376   4.147   9.847   5.096
16843SOL    HW255377   4.126   9.904   4.957
16844SOL     OW55378   4.845   9.315   4.868
16844SOL    HW155379   4.845   9.219   4.869
16844SOL    HW255380   4.937   9.339   4.856
16845SOL     OW55381   5.110   9.340   3.935
16845SOL    HW155382   5.083   9.386   3.856
16845SOL    HW255383   5.035   9.284   3.957
16846SOL     OW55384   4.971   9.734   4.454
16846SOL    HW155385   4.898   9.792   4.473
16846SOL    HW255386   4.991   9.693   4.538
16847SOL     OW55387   3.949   9.573   6.587
16847SOL    HW155388   3.973   9.539   6.674
16847SOL    HW255389   3.860   9.542   6.574
16848SOL     OW55390   3.700   9.653   6.283
16848SOL    HW155391   3.609   9.680   6.293
16848SOL    HW255392   3.698   9.587   6.214
16849SOL     OW55393   5.478   9.812   5.774
16849SOL    HW155394   5.464   9.873   5.702
16849SOL    HW255395   5.437   9.854   5.849
16850SOL     OW55396   4.186   9.707   7.009
16850SOL    HW155397   4.272   9.673   7.034
16850SOL    HW255398   4.124   9.645   7.047
16851SOL     OW55399   5.343   9.776   6.331
16851SOL    HW155400   5.278   9.829   6.284
16851SOL    HW255401   5.394   9.839   6.381
16852SOL     OW55402   5.323   9.350   7.082
16852SOL    HW155403   5.358   9.440   7.080
16852SOL    HW255404   5.359   9.313   7.163
16853SOL     OW55405   3.837   9.897   6.221
16853SOL    HW155406   3.776   9.826   6.240
16853SOL    HW255407   3.783   9.964   6.178
16854SOL     OW55408   4.520   9.314   6.109
16854SOL    HW155409   4.615   9.312   6.115
16854SOL    HW255410   4.500   9.290   6.019
16855SOL     OW55411   4.027   9.563   7.374
16855SOL    HW155412   4.048   9.657   7.378
16855SOL    HW255413   3.942   9.556   7.417
16856SOL     OW55414   5.002   9.640   6.509
16856SOL    HW155415   4.916   9.625   6.548
16856SOL    HW255416   5.064   9.625   6.580
16857SOL     OW55417   4.594   9.861   7.004
16857SOL    HW155418   4.574   9.954   6.997
16857SOL    HW255419   4.526   9.818   6.953
16858SOL     OW55420   5.152   9.812   7.296
16858SOL    HW155421   5.184   9.887   7.346
16858SOL    HW255422   5.202   9.737   7.329
16859SOL     OW55423   4.764   9.787   6.795
16859SOL    HW155424   4.704   9.799   6.869
16859SOL    HW255425   4.717   9.728   6.736
16860SOL     OW55426   4.559   9.668   5.711
16860SOL    HW155427   4.615   9.744   5.697
16860SOL    HW255428   4.620   9.594   5.718
16861SOL     OW55429   4.321   9.547   6.477
16861SOL    HW155430   4.309   9.543   6.572
16861SOL    HW255431   4.294   9.635   6.454
16862SOL     OW55432   5.138   9.969   6.253
16862SOL    HW155433   5.169   0.040   6.310
16862SOL    HW255434   5.121   0.010   6.169
16863SOL     OW55435   3.946   9.574   7.101
16863SOL    HW155436   3.903   9.657   7.082
16863SOL    HW255437   3.967   9.579   7.194
16864SOL     OW55438   5.337   9.597   7.359
16864SOL    HW155439   5.303   9.572   7.446
16864SOL    HW255440   5.389   9.522   7.332
16865SOL     OW55441   4.441   9.327   5.745
16865SOL    HW155442   4.536   9.339   5.757
16865SOL    HW255443   4.425   9.351   5.654
16866SOL     OW55444   4.469   9.548   7.269
16866SOL    HW155445   4.556   9.522   7.300
16866SOL    HW255446   4.458   9.637   7.302
16867SOL     OW55447   5.098   9.915   7.039
16867SOL    HW155448   5.115   9.886   7.129
16867SOL    HW255449   5.153   9.992   7.028
16868SOL     OW55450   4.652   9.831   6.467
16868SOL    HW155451   4.614   9.801   6.385
16868SOL    HW255452   4.687   9.751   6.508
16869SOL     OW55453   4.224   9.388   6.074
16869SOL    HW155454   4.130   9.400   6.086
16869SOL    HW255455   4.249   9.452   6.008
16870SOL     OW55456   4.042   9.377   5.796
16870SOL    HW155457   4.053   9.433   5.720
16870SOL    HW255458   4.103   9.304   5.782
16871SOL     OW55459   4.799   9.972   7.161
16871SOL    HW155460   4.742   9.915   7.109
16871SOL    HW255461   4.867   0.000   7.100
16872SOL     OW55462   3.840   9.826   7.030
16872SOL    HW155463   3.916   9.867   6.989
16872SOL    HW255464   3.850   9.845   7.123
16873SOL     OW55465   4.285   9.525   6.762
16873SOL    HW155466   4.328   9.491   6.841
16873SOL    HW255467   4.192   9.519   6.782
16874SOL     OW55468   4.548   9.787   6.213
16874SOL    HW155469   4.522   9.877   6.192
16874SOL    HW255470   4.469   9.735   6.202
16875SOL     OW55471   4.670   9.411   6.364
16875SOL    HW155472   4.715   9.384   6.285
16875SOL    HW255473   4.660   9.330   6.415
16876SOL     OW55474   4.361   9.549   5.892
16876SOL    HW155475   4.380   9.470   5.842
16876SOL    HW255476   4.409   9.619   5.846
16877SOL     OW55477   4.666   9.371   6.960
16877SOL    HW155478   4.692   9.365   6.869
16877SOL    HW255479   4.732   9.427   7.001
16878SOL     OW55480   5.009   9.701   6.891
16878SOL    HW155481   5.047   9.774   6.939
16878SOL    HW255482   4.929   9.737   6.851
16879SOL     OW55483   4.235   9.833   6.430
16879SOL    HW155484   4.203   9.896   6.365
16879SOL    HW255485   4.303   9.881   6.477
16880SOL     OW55486   5.315   9.933   5.979
16880SOL    HW155487   5.227   9.972   5.976
16880SOL    HW255488   5.371   0.003   6.012
16881SOL     OW55489   4.727   9.471   7.363
16881SOL    HW155490   4.788   9.541   7.343
16881SOL    HW255491   4.768   9.392   7.328
16882SOL     OW55492   4.209   9.349   7.326
16882SOL    HW155493   4.155   9.296   7.267
16882SOL    HW255494   4.164   9.433   7.331
16883SOL     OW55495   4.019   9.482   6.839
16883SOL    HW155496   3.986   9.509   6.925
16883SOL    HW255497   4.002   9.388   6.835
16884SOL     OW55498   4.431   9.940   6.594
16884SOL    HW155499   4.517   9.919   6.556
16884SOL    HW255500   4.438   0.033   6.617
16885SOL     OW55501   3.962   9.396   6.165
16885SOL    HW155502   3.986   9.469   6.222
16885SOL    HW255503   3.869   9.410   6.146
16886SOL     OW55504   5.257   9.656   5.956
16886SOL    HW155505   5.341   9.616   5.979
16886SOL    HW255506   5.273   9.750   5.962
16887SOL     OW55507   5.229   9.614   5.673
16887SOL    HW155508   5.210   9.700   5.637
16887SOL    HW255509   5.248   9.629   5.765
16888SOL     OW55510   3.976   0.104   6.522
16888SOL    HW155511   4.067   0.134   6.521
16888SOL    HW255512   3.982   0.011   6.544
16889SOL     OW55513   4.028   9.833   6.611
16889SOL    HW155514   3.996   9.742   6.607
16889SOL    HW255515   4.103   9.835   6.552
16890SOL     OW55516   4.895   9.684   7.296
16890SOL    HW155517   4.845   9.743   7.352
16890SOL    HW255518   4.980   9.727   7.286
16891SOL     OW55519   4.879   9.522   7.066
16891SOL    HW155520   4.878   9.580   7.142
16891SOL    HW255521   4.932   9.568   7.001
16892SOL     OW55522   3.760   9.846   6.750
16892SOL    HW155523   3.832   9.858   6.688
16892SOL    HW255524   3.803   9.845   6.836
16893SOL     OW55525   3.930   9.833   7.293
16893SOL    HW155526   4.002   9.897   7.289
16893SOL    HW255527   3.871   9.868   7.359
16894SOL     OW55528   4.439   9.757   6.804
16894SOL    HW155529   4.379   9.685   6.787
16894SOL    HW255530   4.424   9.818   6.732
16895SOL     OW55531   5.487   9.509   6.028
16895SOL    HW155532   5.543   9.505   5.950
16895SOL    HW255533   5.483   9.418   6.059
16896SOL     OW55534   5.568   9.474   6.576
16896SOL    HW155535   5.598   9.391   6.538
16896SOL    HW255536   5.486   9.493   6.531
16897SOL     OW55537   4.016   9.621   6.315
16897SOL    HW155538   3.953   9.689   6.294
16897SOL    HW255539   4.005   9.606   6.409
16898SOL     OW55540   4.731   9.579   6.575
16898SOL    HW155541   4.710   9.536   6.492
16898SOL    HW255542   4.733   9.508   6.639
16899SOL     OW55543   5.468   9.764   6.954
16899SOL    HW155544   5.550   9.802   6.922
16899SOL    HW255545   5.454   9.687   6.900
16900SOL     OW55546   4.402   9.445   7.019
16900SOL    HW155547   4.492   9.422   6.994
16900SOL    HW255548   4.410   9.480   7.108
16901SOL     OW55549   3.753   9.637   5.637
16901SOL    HW155550   3.690   9.644   5.566
16901SOL    HW255551   3.831   9.680   5.604
16902SOL     OW55552   3.780   9.456   5.843
16902SOL    HW155553   3.760   9.520   5.774
16902SOL    HW255554   3.874   9.439   5.834
16903SOL     OW55555   4.468   9.812   7.359
16903SOL    HW155556   4.440   9.880   7.421
16903SOL    HW255557   4.542   9.851   7.313
16904SOL     OW55558   5.473   9.518   6.835
16904SOL    HW155559   5.542   9.498   6.898
16904SOL    HW255560   5.513   9.502   6.749
16905SOL     OW55561   4.297   9.648   6.190
16905SOL    HW155562   4.278   9.670   6.099
16905SOL    HW255563   4.218   9.672   6.238
16906SOL     OW55564   4.052   9.909   6.879
16906SOL    HW155565   4.114   9.851   6.923
16906SOL    HW255566   4.060   9.885   6.786
16907SOL     OW55567   5.197   9.589   6.719
16907SOL    HW155568   5.274   9.562   6.769
16907SOL    HW255569   5.137   9.625   6.784
16908SOL     OW55570   4.736   9.323   6.695
16908SOL    HW155571   4.675   9.264   6.651
16908SOL    HW255572   4.822   9.287   6.674
16909SOL     OW55573   5.007   9.723   6.249
16909SOL    HW155574   5.060   9.803   6.252
16909SOL    HW255575   5.006   9.692   6.339
16910SOL     OW55576   5.314   9.530   6.475
16910SOL    HW155577   5.271   9.558   6.555
16910SOL    HW255578   5.316   9.608   6.419
16911SOL     OW55579   3.885   9.600   8.441
16911SOL    HW155580   3.922   9.554   8.516
16911SOL    HW255581   3.803   9.553   8.422
16912SOL     OW55582   3.665   9.723   8.126
16912SOL    HW155583   3.588   9.751   8.176
16912SOL    HW255584   3.642   9.636   8.094
16913SOL     OW55585   4.206   9.740   8.912
16913SOL    HW155586   4.289   9.732   8.864
16913SOL    HW255587   4.214   9.678   8.984
16914SOL     OW55588   5.279   9.713   8.173
16914SOL    HW155589   5.286   9.766   8.094
16914SOL    HW255590   5.315   9.767   8.242
16915SOL     OW55591   5.334   9.455   8.869
16915SOL    HW155592   5.340   9.503   8.786
16915SOL    HW255593   5.271   9.504   8.921
16916SOL     OW55594   3.729   9.958   7.999
16916SOL    HW155595   3.713   9.878   8.050
16916SOL    HW255596   3.819   9.983   8.022
16917SOL     OW55597   4.545   9.261   7.960
16917SOL    HW155598   4.604   9.336   7.951
16917SOL    HW255599   4.457   9.299   7.963
16918SOL     OW55600   4.993   9.569   8.392
16918SOL    HW155601   4.900   9.583   8.410
16918SOL    HW255602   5.028   9.535   8.473
16919SOL     OW55603   4.580   9.819   8.913
16919SOL    HW155604   4.538   9.824   8.999
16919SOL    HW255605   4.507   9.811   8.851
16920SOL     OW55606   5.139   9.818   9.115
16920SOL    HW155607   5.214   9.860   9.159
16920SOL    HW255608   5.162   9.725   9.114
16921SOL     OW55609   4.713   9.776   8.677
16921SOL    HW155610   4.674   9.791   8.763
16921SOL    HW255611   4.642   9.741   8.624
16922SOL     OW55612   4.614   9.611   7.577
16922SOL    HW155613   4.651   9.691   7.539
16922SOL    HW255614   4.647   9.541   7.521
16923SOL     OW55615   5.391   9.895   9.217
16923SOL    HW155616   5.451   9.966   9.197
16923SOL    HW255617   5.431   9.818   9.177
16924SOL     OW55618   4.274   9.454   8.398
16924SOL    HW155619   4.283   9.476   8.491
16924SOL    HW255620   4.260   9.538   8.355
16925SOL     OW55621   5.116   9.984   8.143
16925SOL    HW155622   5.193   9.982   8.200
16925SOL    HW255623   5.144   0.033   8.066
16926SOL     OW55624   5.134   9.423   8.002
16926SOL    HW155625   5.096   9.406   7.916
16926SOL    HW255626   5.228   9.420   7.988
16927SOL     OW55627   5.214   9.549   9.126
16927SOL    HW155628   5.236   9.552   9.219
16927SOL    HW255629   5.143   9.484   9.121
16928SOL     OW55630   4.391   9.362   7.543
16928SOL    HW155631   4.439   9.444   7.555
16928SOL    HW255632   4.344   9.374   7.461
16929SOL     OW55633   4.471   9.580   9.288
16929SOL    HW155634   4.532   9.515   9.253
16929SOL    HW255635   4.385   9.540   9.281
16930SOL     OW55636   5.046   9.936   8.881
16930SOL    HW155637   5.080   9.904   8.964
16930SOL    HW255638   5.062   0.030   8.882
16931SOL     OW55639   4.720   9.817   8.268
16931SOL    HW155640   4.663   9.891   8.289
16931SOL    HW255641   4.687   9.745   8.322
16932SOL     OW55642   4.293   9.370   7.950
16932SOL    HW155643   4.214   9.367   8.004
16932SOL    HW255644   4.285   9.451   7.900
16933SOL     OW55645   4.016   9.342   7.583
16933SOL    HW155646   4.062   9.396   7.519
16933SOL    HW255647   4.085   9.300   7.634
16934SOL     OW55648   4.719   9.496   7.905
16934SOL    HW155649   4.651   9.542   7.856
16934SOL    HW255650   4.799   9.546   7.888
16935SOL     OW55651   4.798   9.960   9.008
16935SOL    HW155652   4.726   9.911   8.968
16935SOL    HW255653   4.869   9.954   8.944
16936SOL     OW55654   4.757   9.835   7.488
16936SOL    HW155655   4.739   9.923   7.454
16936SOL    HW255656   4.795   9.850   7.574
16937SOL     OW55657   3.788   9.896   8.756
16937SOL    HW155658   3.883   9.900   8.766
16937SOL    HW255659   3.758   9.985   8.770
16938SOL     OW55660   4.291   9.519   8.664
16938SOL    HW155661   4.323   9.492   8.750
16938SOL    HW255662   4.196   9.510   8.670
16939SOL     OW55663   4.845   9.440   8.151
16939SOL    HW155664   4.796   9.457   8.071
16939SOL    HW255665   4.827   9.348   8.171
16940SOL     OW55666   4.250   9.586   7.790
16940SOL    HW155667   4.288   9.653   7.733
16940SOL    HW255668   4.179   9.631   7.835
16941SOL     OW55669   4.692   9.377   8.837
16941SOL    HW155670   4.639   9.442   8.791
16941SOL    HW255671   4.762   9.427   8.878
16942SOL     OW55672   4.964   9.705   8.757
16942SOL    HW155673   4.999   9.786   8.794
16942SOL    HW255674   4.881   9.730   8.717
16943SOL     OW55675   5.351   9.883   7.953
16943SOL    HW155676   5.304   9.964   7.929
16943SOL    HW255677   5.440   9.912   7.972
16944SOL     OW55678   4.711   9.451   9.197
16944SOL    HW155679   4.765   9.530   9.200
16944SOL    HW255680   4.773   9.380   9.179
16945SOL     OW55681   4.877   9.887   7.732
16945SOL    HW155682   4.903   9.806   7.776
16945SOL    HW255683   4.959   9.926   7.703
16946SOL     OW55684   4.015   9.464   8.657
16946SOL    HW155685   4.005   9.477   8.751
16946SOL    HW255686   3.995   9.371   8.643
16947SOL     OW55687   4.420   9.990   8.529
16947SOL    HW155688   4.446   0.008   8.439
16947SOL    HW255689   4.371   0.068   8.555
16948SOL     OW55690   4.045   9.355   8.075
16948SOL    HW155691   3.997   9.437   8.081
16948SOL    HW255692   4.045   9.321   8.164
16949SOL     OW55693   5.232   9.662   7.849
16949SOL    HW155694   5.290   9.596   7.888
16949SOL    HW255695   5.272   9.745   7.873
16950SOL     OW55696   5.245   9.524   7.608
16950SOL    HW155697   5.193   9.454   7.645
16950SOL    HW255698   5.249   9.591   7.677
16951SOL     OW55699   4.033   0.021   8.374
16951SOL    HW155700   4.098   0.091   8.360
16951SOL    HW255701   3.960   0.065   8.418
16952SOL     OW55702   4.102   9.781   8.497
16952SOL    HW155703   4.030   9.724   8.470
16952SOL    HW255704   4.091   9.861   8.445
16953SOL     OW55705   4.878   9.690   9.164
16953SOL    HW155706   4.812   9.748   9.203
16953SOL    HW255707   4.956   9.745   9.157
16954SOL     OW55708   4.902   9.520   8.949
16954SOL    HW155709   4.887   9.577   9.024
16954SOL    HW255710   4.931   9.578   8.879
16955SOL     OW55711   3.745   9.849   8.489
16955SOL    HW155712   3.783   9.765   8.464
16955SOL    HW255713   3.762   9.856   8.583
16956SOL     OW55714   3.782   9.819   9.238
16956SOL    HW155715   3.830   9.872   9.301
16956SOL    HW255716   3.698   9.863   9.229
16957SOL     OW55717   4.553   9.851   7.722
16957SOL    HW155718   4.558   9.763   7.685
16957SOL    HW255719   4.505   9.902   7.657
16958SOL     OW55720   4.410   9.772   8.702
16958SOL    HW155721   4.360   9.700   8.664
16958SOL    HW255722   4.399   9.844   8.640
16959SOL     OW55723   5.403   9.449   7.934
16959SOL    HW155724   5.471   9.462   7.868
16959SOL    HW255725   5.431   9.372   7.982
16960SOL     OW55726   5.579   9.439   8.440
16960SOL    HW155727   5.616   9.371   8.384
16960SOL    HW255728   5.495   9.461   8.399
16961SOL     OW55729   3.926   9.618   8.158
16961SOL    HW155730   3.843   9.663   8.143
16961SOL    HW255731   3.933   9.610   8.253
16962SOL     OW55732   4.714   9.536   8.389
16962SOL    HW155733   4.747   9.506   8.304
16962SOL    HW255734   4.693   9.456   8.437
16963SOL     OW55735   4.392   9.459   8.920
16963SOL    HW155736   4.474   9.459   8.969
16963SOL    HW255737   4.326   9.489   8.983
16964SOL     OW55738   3.764   9.562   7.481
16964SOL    HW155739   3.741   9.633   7.541
16964SOL    HW255740   3.710   9.577   7.404
16965SOL     OW55741   3.864   9.593   7.764
16965SOL    HW155742   3.806   9.666   7.742
16965SOL    HW255743   3.931   9.632   7.819
16966SOL     OW55744   4.454   9.832   9.160
16966SOL    HW155745   4.375   9.883   9.177
16966SOL    HW255746   4.436   9.746   9.199
16967SOL     OW55747   4.952   9.659   7.877
16967SOL    HW155748   5.046   9.653   7.860
16967SOL    HW255749   4.946   9.702   7.962
16968SOL     OW55750   5.469   9.662   9.084
16968SOL    HW155751   5.488   9.668   8.991
16968SOL    HW255752   5.388   9.611   9.089
16969SOL     OW55753   4.951   0.231   7.518
16969SOL    HW155754   4.894   0.307   7.518
16969SOL    HW255755   5.039   0.267   7.529
16970SOL     OW55756   5.609   9.502   8.703
16970SOL    HW155757   5.582   9.476   8.615
16970SOL    HW255758   5.557   9.581   8.722
16971SOL     OW55759   4.055   9.723   7.925
16971SOL    HW155760   4.022   9.703   8.013
16971SOL    HW255761   4.091   9.812   7.933
16972SOL     OW55762   4.063   9.902   8.744
16972SOL    HW155763   4.110   9.853   8.812
16972SOL    HW255764   4.087   9.858   8.662
16973SOL     OW55765   5.083   9.491   8.634
16973SOL    HW155766   5.175   9.518   8.637
16973SOL    HW255767   5.038   9.559   8.684
16974SOL     OW55768   4.695   9.261   8.501
16974SOL    HW155769   4.659   9.203   8.568
16974SOL    HW255770   4.790   9.254   8.510
16975SOL     OW55771   5.044   9.372   7.737
16975SOL    HW155772   4.983   9.438   7.704
16975SOL    HW255773   4.996   9.289   7.733
16976SOL     OW55774   4.955   9.764   8.130
16976SOL    HW155775   5.009   9.842   8.140
16976SOL    HW255776   4.875   9.783   8.179
16977SOL     OW55777   5.317   9.513   8.379
16977SOL    HW155778   5.320   9.548   8.469
16977SOL    HW255779   5.322   9.591   8.323
16978SOL     OW55780   5.353   9.900   9.493
16978SOL    HW155781   5.367   9.905   9.398
16978SOL    HW255782   5.383   9.812   9.516
16979SOL     OW55783   3.831   9.830   9.938
16979SOL    HW155784   3.750   9.877   9.957
16979SOL    HW255785   3.898   9.899   9.932
16980SOL     OW55786   4.569   9.407   9.854
16980SOL    HW155787   4.611   9.479   9.806
16980SOL    HW255788   4.479   9.404   9.820
16981SOL     OW55789   4.820   9.960   9.811
16981SOL    HW155790   4.827   9.961   9.907
16981SOL    HW255791   4.727   9.974   9.794
16982SOL     OW55792   4.621   9.696   9.488
16982SOL    HW155793   4.669   9.753   9.427
16982SOL    HW255794   4.564   9.643   9.431
16983SOL     OW55795   5.138   9.445   9.734
16983SOL    HW155796   5.145   9.407   9.646
16983SOL    HW255797   5.229   9.452   9.764
16984SOL     OW55798   4.274   9.413   9.813
16984SOL    HW155799   4.183   9.411   9.841
16984SOL    HW255800   4.273   9.459   9.729
16985SOL     OW55801   4.016   9.348   9.477
16985SOL    HW155802   4.080   9.393   9.422
16985SOL    HW255803   4.069   9.290   9.532
16986SOL     OW55804   4.704   9.625   9.740
16986SOL    HW155805   4.673   9.646   9.652
16986SOL    HW255806   4.798   9.644   9.737
16987SOL     OW55807   4.699   9.866   9.286
16987SOL    HW155808   4.616   9.860   9.240
16987SOL    HW255809   4.722   9.959   9.281
16988SOL     OW55810   4.600   9.766   9.958
16988SOL    HW155811   4.562   9.844   9.916
16988SOL    HW255812   4.630   9.712   9.885
16989SOL     OW55813   4.261   9.539   9.568
16989SOL    HW155814   4.253   9.512   9.477
16989SOL    HW255815   4.289   9.631   9.563
16990SOL     OW55816   5.238   9.892   9.740
16990SOL    HW155817   5.271   9.951   9.807
16990SOL    HW255818   5.282   9.920   9.660
16991SOL     OW55819   4.005   9.404   9.926
16991SOL    HW155820   3.931   9.464   9.935
16991SOL    HW255821   4.026   9.379   0.016
16992SOL     OW55822   5.353   9.655   9.640
16992SOL    HW155823   5.381   9.594   9.708
16992SOL    HW255824   5.303   9.722   9.686
16993SOL     OW55825   5.268   9.554   9.393
16993SOL    HW155826   5.213   9.482   9.424
16993SOL    HW255827   5.303   9.593   9.473
16994SOL     OW55828   4.074   9.784   0.294
16994SOL    HW155829   3.983   9.762   0.314
16994SOL    HW255830   4.071   9.877   0.270
16995SOL     OW55831   4.483   9.930   9.552
16995SOL    HW155832   4.524   9.845   9.533
16995SOL    HW255833   4.498   9.943   9.646
16996SOL     OW55834   5.394   9.477   9.850
16996SOL    HW155835   5.480   9.439   9.866
16996SOL    HW255836   5.358   9.493   9.937
16997SOL     OW55837   3.790   9.439   9.625
16997SOL    HW155838   3.781   9.530   9.600
16997SOL    HW255839   3.869   9.409   9.579
16998SOL     OW55840   4.988   9.683   9.745
16998SOL    HW155841   5.035   9.602   9.723
16998SOL    HW255842   5.006   9.697   9.838
16999SOL     OW55843   4.966   0.242   9.458
16999SOL    HW155844   4.897   0.308   9.459
16999SOL    HW255845   5.045   0.289   9.432
17000SOL     OW55846   4.175   9.752   9.775
17000SOL    HW155847   4.140   9.671   9.737
17000SOL    HW255848   4.109   9.780   9.838
17001SOL     OW55849   5.125   9.336   9.480
17001SOL    HW155850   5.162   9.260   9.434
17001SOL    HW255851   5.034   9.311   9.497
17002SOL     OW55852   5.034   9.747   0.003
17002SOL    HW155853   4.959   9.804   0.016
17002SOL    HW255854   5.070   9.734   0.092
17003SOL     OW55855   5.746   0.533   0.129
17003SOL    HW155856   5.659   0.544   0.167
17003SOL    HW255857   5.754   0.606   0.067
17004SOL     OW55858   5.786   0.324   1.058
17004SOL    HW155859   5.846   0.281   1.119
17004SOL    HW255860   5.725   0.255   1.032
17005SOL     OW55861   5.535   0.426   0.630
17005SOL    HW155862   5.458   0.451   0.682
17005SOL    HW255863   5.500   0.370   0.561
17006SOL     OW55864   7.211   1.490   0.725
17006SOL    HW155865   7.132   1.489   0.779
17006SOL    HW255866   7.185   1.534   0.644
17007SOL     OW55867   6.785   0.712   0.671
17007SOL    HW155868   6.868   0.759   0.665
17007SOL    HW255869   6.743   0.749   0.749
17008SOL     OW55870   7.309   0.558   0.166
17008SOL    HW155871   7.343   0.506   0.094
17008SOL    HW255872   7.386   0.597   0.207
17009SOL     OW55873   6.361   1.061   1.084
17009SOL    HW155874   6.393   1.065   1.174
17009SOL    HW255875   6.362   1.152   1.055
17010SOL     OW55876   6.270   0.964   0.648
17010SOL    HW155877   6.338   0.969   0.715
17010SOL    HW255878   6.200   1.021   0.680
17011SOL     OW55879   6.258   1.203   1.848
17011SOL    HW155880   6.311   1.277   1.879
17011SOL    HW255881   6.191   1.243   1.792
17012SOL     OW55882   7.032   1.525   1.369
17012SOL    HW155883   7.092   1.597   1.387
17012SOL    HW255884   6.958   1.539   1.429
17013SOL     OW55885   6.098   0.366   1.377
17013SOL    HW155886   6.145   0.401   1.453
17013SOL    HW255887   6.021   0.324   1.415
17014SOL     OW55888   7.175   0.449   0.769
17014SOL    HW155889   7.101   0.438   0.709
17014SOL    HW255890   7.150   0.524   0.824
17015SOL     OW55891   5.825   1.733   0.497
17015SOL    HW155892   5.863   1.782   0.570
17015SOL    HW255893   5.899   1.714   0.439
17016SOL     OW55894   6.705   1.335   1.619
17016SOL    HW155895   6.777   1.277   1.591
17016SOL    HW255896   6.635   1.275   1.644
17017SOL     OW55897   5.805   1.454   0.491
17017SOL    HW155898   5.797   1.546   0.516
17017SOL    HW255899   5.772   1.406   0.566
17018SOL     OW55900   5.848   1.113   0.898
17018SOL    HW155901   5.851   1.024   0.934
17018SOL    HW255902   5.780   1.157   0.949
17019SOL     OW55903   6.217   1.790   1.482
17019SOL    HW155904   6.123   1.775   1.493
17019SOL    HW255905   6.229   1.803   1.388
17020SOL     OW55906   7.109   0.076   1.415
17020SOL    HW155907   7.193   0.096   1.373
17020SOL    HW255908   7.114   0.118   1.501
17021SOL     OW55909   5.704   0.651   0.566
17021SOL    HW155910   5.647   0.577   0.586
17021SOL    HW255911   5.699   0.706   0.645
17022SOL     OW55912   7.432   1.728   0.303
17022SOL    HW155913   7.501   1.708   0.367
17022SOL    HW255914   7.447   1.819   0.279
17023SOL     OW55915   5.679   1.553   0.122
17023SOL    HW155916   5.642   1.466   0.140
17023SOL    HW255917   5.644   1.608   0.193
17024SOL     OW55918   7.290   0.916   0.570
17024SOL    HW155919   7.360   0.890   0.630
17024SOL    HW255920   7.329   0.984   0.515
17025SOL     OW55921   7.370   1.115   0.394
17025SOL    HW155922   7.446   1.126   0.336
17025SOL    HW255923   7.368   1.195   0.446
17026SOL     OW55924   5.709   0.797   1.571
17026SOL    HW155925   5.769   0.856   1.616
17026SOL    HW255926   5.636   0.852   1.543
17027SOL     OW55927   6.204   1.353   0.755
17027SOL    HW155928   6.158   1.270   0.755
17027SOL    HW255929   6.182   1.393   0.671
17028SOL     OW55930   6.886   1.217   1.426
17028SOL    HW155931   6.912   1.148   1.365
17028SOL    HW255932   6.958   1.224   1.488
17029SOL     OW55933   6.330   0.091   0.514
17029SOL    HW155934   6.403   0.149   0.493
17029SOL    HW255935   6.343   0.014   0.458
17030SOL     OW55936   5.802   0.998   1.302
17030SOL    HW155937   5.885   0.951   1.296
17030SOL    HW255938   5.740   0.944   1.253
17031SOL     OW55939   7.165   1.007   0.241
17031SOL    HW155940   7.188   0.986   0.151
17031SOL    HW255941   7.242   1.053   0.276
17032SOL     OW55942   6.785   1.824   1.626
17032SOL    HW155943   6.761   1.882   1.553
17032SOL    HW255944   6.790   1.737   1.587
17033SOL     OW55945   5.951   0.244   1.877
17033SOL    HW155946   5.992   0.311   1.932
17033SOL    HW255947   5.864   0.278   1.859
17034SOL     OW55948   7.024   1.430   0.928
17034SOL    HW155949   6.962   1.448   1.000
17034SOL    HW255950   7.022   1.335   0.918
17035SOL     OW55951   7.317   1.795   0.628
17035SOL    HW155952   7.260   1.742   0.572
17035SOL    HW255953   7.379   1.732   0.666
17036SOL     OW55954   6.157   0.692   0.300
17036SOL    HW155955   6.174   0.784   0.282
17036SOL    HW255956   6.096   0.692   0.373
17037SOL     OW55957   6.871   0.395   0.960
17037SOL    HW155958   6.788   0.349   0.968
17037SOL    HW255959   6.935   0.337   1.001
17038SOL     OW55960   7.160   1.622   0.481
17038SOL    HW155961   7.214   1.621   0.401
17038SOL    HW255962   7.072   1.644   0.451
17039SOL     OW55963   6.990   0.526   1.665
17039SOL    HW155964   6.971   0.552   1.755
17039SOL    HW255965   7.078   0.489   1.669
17040SOL     OW55966   6.547   0.414   1.227
17040SOL    HW155967   6.597   0.363   1.291
17040SOL    HW255968   6.560   0.368   1.144
17041SOL     OW55969   6.668   0.693   0.412
17041SOL    HW155970   6.694   0.692   0.505
17041SOL    HW255971   6.583   0.648   0.411
17042SOL     OW55972   5.689   0.821   0.783
17042SOL    HW155973   5.769   0.825   0.836
17042SOL    HW255974   5.630   0.883   0.825
17043SOL     OW55975   5.686   1.824   1.578
17043SOL    HW155976   5.662   1.840   1.669
17043SOL    HW255977   5.643   1.741   1.556
17044SOL     OW55978   6.451   0.377   0.202
17044SOL    HW155979   6.446   0.415   0.114
17044SOL    HW255980   6.468   0.284   0.186
17045SOL     OW55981   7.057   1.126   0.527
17045SOL    HW155982   7.131   1.160   0.576
17045SOL    HW255983   7.013   1.204   0.493
17046SOL     OW55984   6.108   0.223   0.901
17046SOL    HW155985   6.148   0.200   0.984
17046SOL    HW255986   6.130   0.316   0.889
17047SOL     OW55987   6.626   1.535   0.541
17047SOL    HW155988   6.575   1.560   0.465
17047SOL    HW255989   6.561   1.514   0.608
17048SOL     OW55990   7.321   1.007   0.879
17048SOL    HW155991   7.315   1.086   0.825
17048SOL    HW255992   7.294   1.036   0.966
17049SOL     OW55993   6.788   1.569   1.494
17049SOL    HW155994   6.773   1.487   1.541
17049SOL    HW255995   6.722   1.569   1.424
17050SOL     OW55996   5.893   0.949   0.266
17050SOL    HW155997   5.976   0.951   0.218
17050SOL    HW255998   5.829   0.916   0.204
17051SOL     OW55999   7.056   0.801   0.680
17051SOL    HW156000   7.058   0.750   0.761
17051SOL    HW256001   7.140   0.846   0.678
17052SOL     OW56002   6.033   1.291   1.697
17052SOL    HW156003   5.998   1.237   1.625
17052SOL    HW256004   5.961   1.296   1.760
17053SOL     OW56005   6.647   1.794   0.215
17053SOL    HW156006   6.666   1.713   0.168
17053SOL    HW256007   6.731   1.819   0.253
17054SOL     OW56008   5.823   0.311   1.454
17054SOL    HW156009   5.788   0.399   1.438
17054SOL    HW256010   5.762   0.272   1.516
17055SOL     OW56011   7.174   1.455   0.053
17055SOL    HW156012   7.113   1.519   0.017
17055SOL    HW256013   7.122   1.375   0.062
17056SOL     OW56014   6.052   1.696   0.334
17056SOL    HW156015   6.117   1.744   0.385
17056SOL    HW256016   6.104   1.645   0.272
17057SOL     OW56017   6.936   0.093   0.413
17057SOL    HW156018   6.959   0.089   0.320
17057SOL    HW256019   6.994   0.030   0.455
17058SOL     OW56020   5.809   1.872   1.243
17058SOL    HW156021   5.784   1.790   1.286
17058SOL    HW256022   5.830   1.846   1.153
17059SOL     OW56023   6.546   1.685   0.864
17059SOL    HW156024   6.502   1.691   0.949
17059SOL    HW256025   6.489   1.629   0.811
17060SOL     OW56026   5.984   0.663   0.514
17060SOL    HW156027   5.997   0.569   0.528
17060SOL    HW256028   5.890   0.675   0.522
17061SOL     OW56029   7.133   0.181   1.671
17061SOL    HW156030   7.151   0.273   1.689
17061SOL    HW256031   7.099   0.147   1.754
17062SOL     OW56032   6.250   0.065   0.132
17062SOL    HW156033   6.344   0.082   0.124
17062SOL    HW256034   6.216   0.074   0.043
17063SOL     OW56035   6.378   0.294   1.787
17063SOL    HW156036   6.474   0.294   1.796
17063SOL    HW256037   6.356   0.386   1.769
17064SOL     OW56038   6.536   1.574   1.276
17064SOL    HW156039   6.493   1.625   1.207
17064SOL    HW256040   6.580   1.503   1.229
17065SOL     OW56041   6.925   0.601   1.410
17065SOL    HW156042   6.945   0.574   1.500
17065SOL    HW256043   6.941   0.696   1.410
17066SOL     OW56044   6.378   1.310   0.971
17066SOL    HW156045   6.465   1.322   0.934
17066SOL    HW256046   6.318   1.332   0.900
17067SOL     OW56047   6.521   0.545   0.903
17067SOL    HW156048   6.496   0.531   0.811
17067SOL    HW256049   6.545   0.458   0.935
17068SOL     OW56050   7.013   1.227   0.094
17068SOL    HW156051   7.038   1.155   0.152
17068SOL    HW256052   6.918   1.235   0.106
17069SOL     OW56053   5.852   0.043   0.235
17069SOL    HW156054   5.924   0.091   0.276
17069SOL    HW256055   5.872   9.951   0.253
17070SOL     OW56056   6.522   0.282   0.459
17070SOL    HW156057   6.500   0.319   0.373
17070SOL    HW256058   6.618   0.286   0.463
17071SOL     OW56059   6.057   1.124   0.720
17071SOL    HW156060   5.990   1.118   0.789
17071SOL    HW256061   6.008   1.123   0.638
17072SOL     OW56062   6.706   0.585   9.978
17072SOL    HW156063   6.626   0.532   9.972
17072SOL    HW256064   6.750   0.552   0.057
17073SOL     OW56065   5.744   0.576   1.399
17073SOL    HW156066   5.830   0.598   1.364
17073SOL    HW256067   5.722   0.649   1.458
17074SOL     OW56068   6.170   0.148   1.166
17074SOL    HW156069   6.208   0.204   1.234
17074SOL    HW256070   6.077   0.145   1.186
17075SOL     OW56071   6.462   0.484   0.643
17075SOL    HW156072   6.423   0.540   0.576
17075SOL    HW256073   6.485   0.403   0.597
17076SOL     OW56074   6.508   0.096   0.802
17076SOL    HW156075   6.458   0.084   0.722
17076SOL    HW256076   6.510   0.010   0.844
17077SOL     OW56077   7.032   1.154   0.894
17077SOL    HW156078   6.984   1.072   0.907
17077SOL    HW256079   7.080   1.141   0.812
17078SOL     OW56080   7.029   0.643   0.927
17078SOL    HW156081   6.970   0.570   0.944
17078SOL    HW256082   7.090   0.642   1.001
17079SOL     OW56083   7.442   0.787   0.305
17079SOL    HW156084   7.491   0.757   0.382
17079SOL    HW256085   7.484   0.869   0.281
17080SOL     OW56086   7.263   1.223   0.686
17080SOL    HW156087   7.357   1.209   0.679
17080SOL    HW256088   7.253   1.317   0.698
17081SOL     OW56089   6.083   0.189   0.312
17081SOL    HW156090   6.141   0.148   0.248
17081SOL    HW256091   6.059   0.273   0.273
17082SOL     OW56092   7.342   1.295   1.536
17082SOL    HW156093   7.419   1.240   1.521
17082SOL    HW256094   7.374   1.370   1.586
17083SOL     OW56095   6.676   1.325   1.293
17083SOL    HW156096   6.596   1.318   1.346
17083SOL    HW256097   6.744   1.287   1.348
17084SOL     OW56098   7.198   1.629   1.686
17084SOL    HW156099   7.182   1.668   1.600
17084SOL    HW256100   7.284   1.588   1.678
17085SOL     OW56101   6.680   1.144   1.083
17085SOL    HW156102   6.659   1.205   1.154
17085SOL    HW256103   6.664   1.195   1.003
17086SOL     OW56104   7.202   1.099   1.113
17086SOL    HW156105   7.207   1.169   1.178
17086SOL    HW256106   7.133   1.128   1.053
17087SOL     OW56107   6.442   0.128   1.371
17087SOL    HW156108   6.463   0.094   1.284
17087SOL    HW256109   6.520   0.178   1.396
17088SOL     OW56110   6.494   1.174   1.684
17088SOL    HW156111   6.414   1.175   1.736
17088SOL    HW256112   6.520   1.081   1.683
17089SOL     OW56113   6.272   1.032   0.373
17089SOL    HW156114   6.263   1.010   0.465
17089SOL    HW256115   6.355   0.991   0.347
17090SOL     OW56116   6.042   0.854   1.327
17090SOL    HW156117   6.064   0.860   1.420
17090SOL    HW256118   6.024   0.762   1.312
17091SOL     OW56119   6.863   0.389   1.256
17091SOL    HW156120   6.893   0.455   1.319
17091SOL    HW256121   6.836   0.440   1.180
17092SOL     OW56122   5.725   1.614   1.293
17092SOL    HW156123   5.646   1.636   1.245
17092SOL    HW256124   5.694   1.579   1.377
17093SOL     OW56125   5.902   1.119   0.490
17093SOL    HW156126   5.905   1.189   0.425
17093SOL    HW256127   5.909   1.038   0.439
17094SOL     OW56128   6.164   0.498   0.890
17094SOL    HW156129   6.176   0.558   0.817
17094SOL    HW256130   6.222   0.531   0.958
17095SOL     OW56131   6.807   1.442   0.349
17095SOL    HW156132   6.860   1.521   0.355
17095SOL    HW256133   6.744   1.450   0.421
17096SOL     OW56134   6.867   1.477   1.152
17096SOL    HW156135   6.931   1.490   1.222
17096SOL    HW256136   6.802   1.418   1.190
17097SOL     OW56137   7.185   0.701   0.396
17097SOL    HW156138   7.208   0.667   0.482
17097SOL    HW256139   7.267   0.731   0.359
17098SOL     OW56140   6.098   0.734   1.651
17098SOL    HW156141   6.172   0.764   1.703
17098SOL    HW256142   6.125   0.649   1.617
17099SOL     OW56143   7.204   0.793   1.708
17099SOL    HW156144   7.145   0.719   1.692
17099SOL    HW256145   7.260   0.795   1.631
17100SOL     OW56146   6.633   0.094   1.797
17100SOL    HW156147   6.662   0.152   1.867
17100SOL    HW256148   6.685   0.120   1.721
17101SOL     OW56149   6.113   0.050   1.766
17101SOL    HW156150   6.150   0.087   1.686
17101SOL    HW256151   6.050   0.115   1.796
17102SOL     OW56152   6.158   0.877   1.071
17102SOL    HW156153   6.222   0.948   1.067
17102SOL    HW256154   6.121   0.882   1.159
17103SOL     OW56155   6.922   0.903   0.956
17103SOL    HW156156   6.830   0.882   0.939
17103SOL    HW256157   6.967   0.819   0.950
17104SOL     OW56158   6.877   0.522   0.296
17104SOL    HW156159   6.843   0.445   0.342
17104SOL    HW256160   6.818   0.593   0.322
17105SOL     OW56161   5.904   0.155   1.241
17105SOL    HW156162   5.871   0.201   1.318
17105SOL    HW256163   5.894   0.062   1.263
17106SOL     OW56164   5.556   1.286   1.257
17106SOL    HW156165   5.499   1.273   1.333
17106SOL    HW256166   5.645   1.277   1.292
17107SOL     OW56167   6.324   0.650   1.079
17107SOL    HW156168   6.389   0.638   1.010
17107SOL    HW256169   6.275   0.728   1.052
17108SOL     OW56170   7.347   0.969   1.860
17108SOL    HW156171   7.294   0.908   1.809
17108SOL    HW256172   7.300   0.980   1.942
17109SOL     OW56173   5.917   0.105   0.629
17109SOL    HW156174   5.858   0.180   0.634
17109SOL    HW256175   5.909   0.063   0.715
17110SOL     OW56176   7.211   0.405   0.462
17110SOL    HW156177   7.214   0.309   0.462
17110SOL    HW256178   7.287   0.432   0.512
17111SOL     OW56179   6.664   0.778   0.934
17111SOL    HW156180   6.660   0.792   1.028
17111SOL    HW256181   6.619   0.695   0.919
17112SOL     OW56182   6.572   1.554   1.713
17112SOL    HW156183   6.563   1.614   1.639
17112SOL    HW256184   6.613   1.476   1.675
17113SOL     OW56185   7.454   1.537   1.642
17113SOL    HW156186   7.481   1.549   1.551
17113SOL    HW256187   7.537   1.537   1.691
17114SOL     OW56188   5.930   0.908   1.792
17114SOL    HW156189   5.987   0.936   1.864
17114SOL    HW256190   5.983   0.845   1.743
17115SOL     OW56191   7.141   0.295   0.179
17115SOL    HW156192   7.089   0.218   0.157
17115SOL    HW256193   7.230   0.263   0.185
17116SOL     OW56194   6.921   0.857   0.047
17116SOL    HW156195   6.889   0.794   9.983
17116SOL    HW256196   7.008   0.882   0.014
17117SOL     OW56197   6.635   1.308   0.862
17117SOL    HW156198   6.634   1.247   0.788
17117SOL    HW256199   6.697   1.376   0.835
17118SOL     OW56200   5.901   0.836   0.965
17118SOL    HW156201   5.993   0.858   0.983
17118SOL    HW256202   5.895   0.742   0.982
17119SOL     OW56203   5.923   0.559   1.010
17119SOL    HW156204   5.870   0.479   1.016
17119SOL    HW256205   6.000   0.533   0.959
17120SOL     OW56206   6.741   0.387   1.651
17120SOL    HW156207   6.692   0.440   1.715
17120SOL    HW256208   6.828   0.428   1.649
17121SOL     OW56209   6.678   0.262   1.419
17121SOL    HW156210   6.695   0.301   1.505
17121SOL    HW256211   6.757   0.279   1.369
17122SOL     OW56212   5.615   1.272   0.142
17122SOL    HW156213   5.526   1.304   0.128
17122SOL    HW256214   5.605   1.198   0.201
17123SOL     OW56215   5.615   1.773   0.912
17123SOL    HW156216   5.595   1.689   0.871
17123SOL    HW256217   5.707   1.765   0.937
17124SOL     OW56218   5.585   0.472   1.200
17124SOL    HW156219   5.648   0.429   1.142
17124SOL    HW256220   5.640   0.515   1.266
17125SOL     OW56221   5.799   0.592   1.751
17125SOL    HW156222   5.888   0.600   1.719
17125SOL    HW256223   5.747   0.651   1.696
17126SOL     OW56224   6.864   0.894   1.668
17126SOL    HW156225   6.907   0.885   1.583
17126SOL    HW256226   6.784   0.842   1.660
17127SOL     OW56227   6.409   0.585   0.382
17127SOL    HW156228   6.420   0.515   0.318
17127SOL    HW256229   6.326   0.626   0.357
17128SOL     OW56230   7.204   0.621   1.135
17128SOL    HW156231   7.194   0.557   1.205
17128SOL    HW256232   7.293   0.608   1.103
17129SOL     OW56233   5.839   1.568   1.778
17129SOL    HW156234   5.764   1.601   1.827
17129SOL    HW256235   5.829   1.473   1.780
17130SOL     OW56236   6.489   1.714   1.505
17130SOL    HW156237   6.510   1.674   1.420
17130SOL    HW256238   6.405   1.758   1.490
17131SOL     OW56239   5.983   0.448   0.260
17131SOL    HW156240   6.044   0.521   0.244
17131SOL    HW256241   5.904   0.472   0.211
17132SOL     OW56242   5.834   1.171   1.513
17132SOL    HW156243   5.774   1.143   1.582
17132SOL    HW256244   5.818   1.111   1.440
17133SOL     OW56245   6.894   1.027   1.208
17133SOL    HW156246   6.933   0.985   1.131
17133SOL    HW256247   6.815   1.069   1.174
17134SOL     OW56248   6.890   0.849   0.329
17134SOL    HW156249   6.804   0.812   0.347
17134SOL    HW256250   6.894   0.856   0.234
17135SOL     OW56251   7.388   1.730   1.195
17135SOL    HW156252   7.449   1.752   1.124
17135SOL    HW256253   7.337   1.657   1.161
17136SOL     OW56254   6.825   1.752   1.094
17136SOL    HW156255   6.910   1.770   1.055
17136SOL    HW256256   6.827   1.658   1.113
17137SOL     OW56257   5.624   1.259   0.988
17137SOL    HW156258   5.595   1.269   1.079
17137SOL    HW256259   5.577   1.182   0.956
17138SOL     OW56260   6.305   1.691   1.728
17138SOL    HW156261   6.266   1.738   1.655
17138SOL    HW256262   6.395   1.675   1.701
17139SOL     OW56263   6.522   0.114   0.166
17139SOL    HW156264   6.603   0.129   0.117
17139SOL    HW256265   6.549   0.061   0.241
17140SOL     OW56266   7.304   0.145   0.472
17140SOL    HW156267   7.345   0.154   0.386
17140SOL    HW256268   7.369   0.095   0.523
17141SOL     OW56269   5.645   1.880   1.848
17141SOL    HW156270   5.612   1.793   1.873
17141SOL    HW256271   5.724   1.891   1.901
17142SOL     OW56272   6.423   1.351   1.412
17142SOL    HW156273   6.370   1.366   1.490
17142SOL    HW256274   6.432   1.439   1.373
17143SOL     OW56275   6.221   1.541   0.175
17143SOL    HW156276   6.214   1.514   0.084
17143SOL    HW256277   6.239   1.460   0.223
17144SOL     OW56278   7.201   1.741   1.422
17144SOL    HW156279   7.267   1.734   1.353
17144SOL    HW256280   7.166   1.829   1.413
17145SOL     OW56281   7.402   0.041   1.007
17145SOL    HW156282   7.490   0.058   0.975
17145SOL    HW256283   7.345   0.094   0.951
17146SOL     OW56284   5.786   0.341   0.694
17146SOL    HW156285   5.697   0.368   0.672
17146SOL    HW256286   5.795   0.361   0.787
17147SOL     OW56287   6.710   1.562   0.067
17147SOL    HW156288   6.763   1.505   0.121
17147SOL    HW256289   6.728   1.533   9.977
17148SOL     OW56290   6.436   1.082   1.353
17148SOL    HW156291   6.474   1.047   1.434
17148SOL    HW256292   6.420   1.174   1.372
17149SOL     OW56293   6.509   0.913   0.313
17149SOL    HW156294   6.563   0.945   0.241
17149SOL    HW256295   6.555   0.835   0.345
17150SOL     OW56296   6.983   1.639   9.951
17150SOL    HW156297   6.893   1.629   9.982
17150SOL    HW256298   6.982   1.604   9.862
17151SOL     OW56299   5.939   1.401   1.395
17151SOL    HW156300   5.922   1.458   1.470
17151SOL    HW256301   5.909   1.314   1.423
17152SOL     OW56302   7.194   1.314   1.293
17152SOL    HW156303   7.249   1.298   1.369
17152SOL    HW256304   7.126   1.373   1.324
17153SOL     OW56305   6.615   1.119   0.665
17153SOL    HW156306   6.560   1.062   0.718
17153SOL    HW256307   6.602   1.089   0.575
17154SOL     OW56308   6.614   0.264   0.996
17154SOL    HW156309   6.579   0.228   0.915
17154SOL    HW256310   6.616   0.190   1.057
17155SOL     OW56311   6.173   1.459   0.504
17155SOL    HW156312   6.218   1.407   0.437
17155SOL    HW256313   6.098   1.496   0.458
17156SOL     OW56314   7.276   0.410   1.307
17156SOL    HW156315   7.351   0.459   1.340
17156SOL    HW256316   7.307   0.320   1.300
17157SOL     OW56317   5.864   1.294   0.279
17157SOL    HW156318   5.789   1.299   0.220
17157SOL    HW256319   5.848   1.363   0.343
17158SOL     OW56320   5.706   1.062   1.748
17158SOL    HW156321   5.627   1.025   1.786
17158SOL    HW256322   5.777   1.005   1.778
17159SOL     OW56323   6.255   0.170   1.570
17159SOL    HW156324   6.316   0.170   1.496
17159SOL    HW256325   6.296   0.227   1.635
17160SOL     OW56326   5.760   0.326   9.944
17160SOL    HW156327   5.677   0.321   9.896
17160SOL    HW256328   5.746   0.393   0.011
17161SOL     OW56329   6.988   0.871   1.413
17161SOL    HW156330   6.945   0.926   1.348
17161SOL    HW256331   7.080   0.871   1.388
17162SOL     OW56332   6.735   1.262   0.154
17162SOL    HW156333   6.646   1.292   0.132
17162SOL    HW256334   6.760   1.317   0.229
17163SOL     OW56335   7.081   1.805   0.981
17163SOL    HW156336   7.122   1.861   0.915
17163SOL    HW256337   7.146   1.737   0.999
17164SOL     OW56338   7.079   1.242   1.616
17164SOL    HW156339   7.075   1.195   1.699
17164SOL    HW256340   7.172   1.251   1.598
17165SOL     OW56341   5.951   1.733   1.582
17165SOL    HW156342   5.868   1.775   1.558
17165SOL    HW256343   5.925   1.666   1.646
17166SOL     OW56344   7.233   0.870   1.275
17166SOL    HW156345   7.226   0.791   1.221
17166SOL    HW256346   7.229   0.942   1.213
17167SOL     OW56347   6.796   0.320   0.467
17167SOL    HW156348   6.844   0.238   0.452
17167SOL    HW256349   6.836   0.356   0.546
17168SOL     OW56350   6.185   0.701   0.702
17168SOL    HW156351   6.225   0.786   0.686
17168SOL    HW256352   6.114   0.696   0.638
17169SOL     OW56353   7.405   0.250   1.579
17169SOL    HW156354   7.342   0.322   1.582
17169SOL    HW256355   7.357   0.174   1.610
17170SOL     OW56356   7.387   0.861   1.507
17170SOL    HW156357   7.401   0.954   1.524
17170SOL    HW256358   7.342   0.859   1.422
17171SOL     OW56359   6.475   1.364   0.080
17171SOL    HW156360   6.396   1.364   0.025
17171SOL    HW256361   6.516   1.449   0.063
17172SOL     OW56362   6.468   0.965   0.844
17172SOL    HW156363   6.538   0.905   0.872
17172SOL    HW256364   6.434   1.001   0.926
17173SOL     OW56365   6.690   0.992   0.126
17173SOL    HW156366   6.708   1.086   0.130
17173SOL    HW256367   6.767   0.954   0.085
17174SOL     OW56368   7.462   1.538   0.832
17174SOL    HW156369   7.373   1.513   0.805
17174SOL    HW256370   7.493   1.463   0.884
17175SOL     OW56371   5.800   1.303   1.844
17175SOL    HW156372   5.761   1.227   1.801
17175SOL    HW256373   5.749   1.316   1.924
17176SOL     OW56374   5.731   1.253   0.672
17176SOL    HW156375   5.759   1.219   0.757
17176SOL    HW256376   5.778   1.199   0.608
17177SOL     OW56377   6.256   1.434   1.614
17177SOL    HW156378   6.173   1.393   1.639
17177SOL    HW256379   6.256   1.517   1.662
17178SOL     OW56380   7.346   0.139   1.264
17178SOL    HW156381   7.430   0.137   1.310
17178SOL    HW256382   7.365   0.105   1.177
17179SOL     OW56383   6.003   0.382   0.529
17179SOL    HW156384   5.978   0.398   0.438
17179SOL    HW256385   5.920   0.378   0.576
17180SOL     OW56386   7.232   1.524   1.099
17180SOL    HW156387   7.173   1.492   1.032
17180SOL    HW256388   7.242   1.451   1.160
17181SOL     OW56389   5.989   0.595   1.275
17181SOL    HW156390   6.030   0.513   1.302
17181SOL    HW256391   5.971   0.583   1.182
17182SOL     OW56392   6.396   1.539   0.688
17182SOL    HW156393   6.355   1.564   0.605
17182SOL    HW256394   6.336   1.474   0.725
17183SOL     OW56395   7.061   0.246   1.128
17183SOL    HW156396   7.137   0.228   1.183
17183SOL    HW256397   6.996   0.283   1.188
17184SOL     OW56398   6.580   0.025   1.141
17184SOL    HW156399   6.561   9.956   1.078
17184SOL    HW256400   6.621   9.980   1.215
17185SOL     OW56401   6.291   1.304   0.300
17185SOL    HW156402   6.279   1.212   0.323
17185SOL    HW256403   6.366   1.304   0.241
17186SOL     OW56404   7.011   0.048   0.142
17186SOL    HW156405   7.097   0.008   0.128
17186SOL    HW256406   6.952   9.974   0.160
17187SOL     OW56407   6.898   0.456   0.687
17187SOL    HW156408   6.854   0.540   0.676
17187SOL    HW256409   6.881   0.431   0.778
17188SOL     OW56410   7.202   0.203   0.894
17188SOL    HW156411   7.155   0.222   0.975
17188SOL    HW256412   7.205   0.286   0.847
17189SOL     OW56413   5.625   1.063   0.328
17189SOL    HW156414   5.721   1.068   0.331
17189SOL    HW256415   5.606   0.969   0.337
17190SOL     OW56416   6.433   1.621   0.368
17190SOL    HW156417   6.379   1.611   0.290
17190SOL    HW256418   6.455   1.714   0.370
17191SOL     OW56419   5.802   0.584   2.031
17191SOL    HW156420   5.710   0.592   2.058
17191SOL    HW256421   5.802   0.606   1.938
17192SOL     OW56422   5.770   0.225   2.972
17192SOL    HW156423   5.825   0.192   2.901
17192SOL    HW256424   5.681   0.216   2.939
17193SOL     OW56425   5.591   0.310   2.553
17193SOL    HW156426   5.509   0.355   2.574
17193SOL    HW256427   5.567   0.246   2.486
17194SOL     OW56428   6.183   1.328   3.078
17194SOL    HW156429   6.102   1.309   3.030
17194SOL    HW256430   6.182   1.423   3.088
17195SOL     OW56431   7.154   1.575   2.572
17195SOL    HW156432   7.115   1.515   2.635
17195SOL    HW256433   7.103   1.563   2.493
17196SOL     OW56434   6.726   0.748   2.539
17196SOL    HW156435   6.806   0.798   2.552
17196SOL    HW256436   6.674   0.766   2.618
17197SOL     OW56437   6.412   1.190   2.959
17197SOL    HW156438   6.333   1.200   3.013
17197SOL    HW256439   6.410   1.265   2.899
17198SOL     OW56440   6.491   0.724   3.663
17198SOL    HW156441   6.520   0.785   3.731
17198SOL    HW256442   6.494   0.776   3.583
17199SOL     OW56443   6.284   1.074   2.502
17199SOL    HW156444   6.346   1.049   2.570
17199SOL    HW256445   6.200   1.085   2.547
17200SOL     OW56446   6.264   1.132   3.697
17200SOL    HW156447   6.297   1.214   3.734
17200SOL    HW256448   6.199   1.159   3.631
17201SOL     OW56449   5.936   1.407   2.921
17201SOL    HW156450   5.871   1.359   2.869
17201SOL    HW256451   5.984   1.458   2.856
17202SOL     OW56452   7.001   1.500   3.197
17202SOL    HW156453   7.060   1.576   3.207
17202SOL    HW256454   6.947   1.502   3.276
17203SOL     OW56455   5.986   0.336   3.363
17203SOL    HW156456   6.069   0.307   3.402
17203SOL    HW256457   5.980   0.286   3.281
17204SOL     OW56458   7.160   0.451   2.539
17204SOL    HW156459   7.121   0.367   2.516
17204SOL    HW256460   7.139   0.508   2.465
17205SOL     OW56461   5.762   1.728   2.332
17205SOL    HW156462   5.827   1.785   2.371
17205SOL    HW256463   5.777   1.643   2.372
17206SOL     OW56464   6.738   1.339   3.590
17206SOL    HW156465   6.788   1.365   3.667
17206SOL    HW256466   6.703   1.253   3.612
17207SOL     OW56467   5.766   1.489   2.471
17207SOL    HW156468   5.707   1.529   2.535
17207SOL    HW256469   5.759   1.395   2.489
17208SOL     OW56470   5.829   1.093   2.796
17208SOL    HW156471   5.843   1.004   2.827
17208SOL    HW256472   5.734   1.099   2.784
17209SOL     OW56473   6.133   1.859   3.258
17209SOL    HW156474   6.073   1.815   3.318
17209SOL    HW256475   6.167   1.933   3.308
17210SOL     OW56476   6.124   1.009   2.000
17210SOL    HW156477   6.169   1.066   1.938
17210SOL    HW256478   6.177   1.015   2.080
17211SOL     OW56479   7.197   0.018   3.367
17211SOL    HW156480   7.238   9.976   3.291
17211SOL    HW256481   7.213   0.111   3.355
17212SOL     OW56482   7.402   1.722   2.229
17212SOL    HW156483   7.489   1.729   2.269
17212SOL    HW256484   7.420   1.685   2.142
17213SOL     OW56485   5.608   1.620   1.929
17213SOL    HW156486   5.566   1.550   1.879
17213SOL    HW256487   5.583   1.603   2.020
17214SOL     OW56488   7.320   0.943   2.542
17214SOL    HW156489   7.346   0.852   2.538
17214SOL    HW256490   7.292   0.964   2.453
17215SOL     OW56491   7.238   1.112   2.312
17215SOL    HW156492   7.321   1.108   2.265
17215SOL    HW256493   7.257   1.164   2.390
17216SOL     OW56494   5.699   0.734   3.407
17216SOL    HW156495   5.770   0.798   3.397
17216SOL    HW256496   5.619   0.785   3.391
17217SOL     OW56497   6.182   1.396   2.598
17217SOL    HW156498   6.144   1.310   2.615
17217SOL    HW256499   6.156   1.416   2.508
17218SOL     OW56500   6.854   1.229   3.283
17218SOL    HW156501   6.874   1.157   3.223
17218SOL    HW256502   6.915   1.216   3.356
17219SOL     OW56503   6.379   0.020   2.419
17219SOL    HW156504   6.398   0.113   2.404
17219SOL    HW256505   6.284   0.013   2.405
17220SOL     OW56506   5.792   0.975   3.129
17220SOL    HW156507   5.867   0.919   3.146
17220SOL    HW256508   5.762   0.950   3.041
17221SOL     OW56509   7.161   0.981   2.073
17221SOL    HW156510   7.128   0.893   2.091
17221SOL    HW256511   7.180   1.018   2.160
17222SOL     OW56512   6.725   1.779   3.425
17222SOL    HW156513   6.809   1.826   3.426
17222SOL    HW256514   6.750   1.686   3.424
17223SOL     OW56515   5.870   0.247   3.701
17223SOL    HW156516   5.909   0.329   3.732
17223SOL    HW256517   5.802   0.228   3.765
17224SOL     OW56518   6.999   1.433   2.747
17224SOL    HW156519   6.955   1.432   2.832
17224SOL    HW256520   7.029   1.342   2.735
17225SOL     OW56521   7.242   1.818   2.431
17225SOL    HW156522   7.292   1.779   2.360
17225SOL    HW256523   7.218   1.744   2.487
17226SOL     OW56524   6.162   0.650   2.191
17226SOL    HW156525   6.163   0.736   2.150
17226SOL    HW256526   6.104   0.659   2.266
17227SOL     OW56527   6.909   0.378   2.760
17227SOL    HW156528   6.946   0.315   2.698
17227SOL    HW256529   6.916   0.335   2.845
17228SOL     OW56530   7.121   1.697   2.164
17228SOL    HW156531   7.216   1.693   2.166
17228SOL    HW256532   7.098   1.682   2.072
17229SOL     OW56533   6.400   0.589   3.342
17229SOL    HW156534   6.356   0.555   3.420
17229SOL    HW256535   6.390   0.520   3.277
17230SOL     OW56536   6.935   0.472   3.508
17230SOL    HW156537   6.938   0.518   3.592
17230SOL    HW256538   6.998   0.401   3.518
17231SOL     OW56539   6.533   0.911   3.453
17231SOL    HW156540   6.590   0.854   3.401
17231SOL    HW256541   6.472   0.948   3.389
17232SOL     OW56542   6.664   0.719   2.273
17232SOL    HW156543   6.680   0.729   2.367
17232SOL    HW256544   6.578   0.677   2.268
17233SOL     OW56545   5.661   0.862   2.616
17233SOL    HW156546   5.719   0.837   2.544
17233SOL    HW256547   5.711   0.842   2.695
17234SOL     OW56548   5.688   1.863   3.449
17234SOL    HW156549   5.693   1.872   3.544
17234SOL    HW256550   5.641   1.781   3.435
17235SOL     OW56551   6.504   0.391   2.076
17235SOL    HW156552   6.512   0.454   2.004
17235SOL    HW256553   6.581   0.334   2.066
17236SOL     OW56554   7.228   0.580   3.718
17236SOL    HW156555   7.226   0.661   3.666
17236SOL    HW256556   7.267   0.516   3.659
17237SOL     OW56557   6.967   1.147   2.379
17237SOL    HW156558   7.051   1.130   2.337
17237SOL    HW256559   6.921   1.205   2.318
17238SOL     OW56560   6.128   0.296   2.775
17238SOL    HW156561   6.169   0.275   2.859
17238SOL    HW256562   6.167   0.380   2.750
17239SOL     OW56563   6.601   1.458   2.352
17239SOL    HW156564   6.526   1.517   2.340
17239SOL    HW256565   6.597   1.433   2.444
17240SOL     OW56566   5.972   1.817   2.729
17240SOL    HW156567   6.012   1.732   2.747
17240SOL    HW256568   6.043   1.880   2.744
17241SOL     OW56569   7.421   1.064   2.769
17241SOL    HW156570   7.379   1.036   2.688
17241SOL    HW256571   7.351   1.061   2.834
17242SOL     OW56572   6.805   1.520   3.392
17242SOL    HW156573   6.808   1.458   3.465
17242SOL    HW256574   6.747   1.478   3.328
17243SOL     OW56575   5.887   0.975   2.144
17243SOL    HW156576   5.965   0.986   2.090
17243SOL    HW256577   5.896   0.887   2.182
17244SOL     OW56578   7.028   0.754   2.591
17244SOL    HW156579   7.051   0.696   2.663
17244SOL    HW256580   7.067   0.713   2.514
17245SOL     OW56581   6.079   1.284   3.553
17245SOL    HW156582   6.034   1.307   3.472
17245SOL    HW256583   6.009   1.280   3.619
17246SOL     OW56584   6.731   1.720   2.126
17246SOL    HW156585   6.749   1.655   2.194
17246SOL    HW256586   6.740   1.673   2.043
17247SOL     OW56587   5.725   0.247   3.441
17247SOL    HW156588   5.782   0.296   3.381
17247SOL    HW256589   5.774   0.244   3.523
17248SOL     OW56590   7.185   1.359   1.906
17248SOL    HW156591   7.152   1.411   1.833
17248SOL    HW256592   7.133   1.279   1.904
17249SOL     OW56593   6.923   0.084   2.298
17249SOL    HW156594   6.940  10.000   2.342
17249SOL    HW256595   7.004   0.134   2.310
17250SOL     OW56596   5.802   1.798   3.039
17250SOL    HW156597   5.857   1.727   3.072
17250SOL    HW256598   5.807   1.791   2.944
17251SOL     OW56599   6.543   1.707   2.725
17251SOL    HW156600   6.628   1.663   2.724
17251SOL    HW256601   6.489   1.657   2.665
17252SOL     OW56602   7.086   0.248   3.586
17252SOL    HW156603   7.075   0.258   3.680
17252SOL    HW256604   7.019   0.185   3.560
17253SOL     OW56605   6.279   0.106   1.981
17253SOL    HW156606   6.327   0.178   1.942
17253SOL    HW256607   6.215   0.080   1.914
17254SOL     OW56608   6.374   0.282   3.662
17254SOL    HW156609   6.454   0.229   3.651
17254SOL    HW256610   6.316   0.226   3.714
17255SOL     OW56611   6.467   1.550   3.068
17255SOL    HW156612   6.453   1.511   2.982
17255SOL    HW256613   6.531   1.493   3.110
17256SOL     OW56614   6.863   0.589   3.268
17256SOL    HW156615   6.901   0.550   3.347
17256SOL    HW256616   6.912   0.669   3.255
17257SOL     OW56617   6.399   1.412   2.797
17257SOL    HW156618   6.476   1.413   2.740
17257SOL    HW256619   6.326   1.394   2.737
17258SOL     OW56620   6.564   0.509   2.742
17258SOL    HW156621   6.506   0.497   2.667
17258SOL    HW256622   6.646   0.468   2.715
17259SOL     OW56623   6.099   9.980   2.384
17259SOL    HW156624   6.010   9.978   2.419
17259SOL    HW256625   6.097   0.049   2.318
17260SOL     OW56626   7.039   1.122   1.866
17260SOL    HW156627   7.081   1.072   1.936
17260SOL    HW256628   6.972   1.063   1.832
17261SOL     OW56629   5.875   0.063   2.069
17261SOL    HW156630   5.897   0.110   1.988
17261SOL    HW256631   5.945   0.085   2.130
17262SOL     OW56632   6.478   0.263   2.333
17262SOL    HW156633   6.457   0.303   2.248
17262SOL    HW256634   6.573   0.275   2.342
17263SOL     OW56635   6.627   0.725   3.274
17263SOL    HW156636   6.559   0.665   3.304
17263SOL    HW256637   6.707   0.672   3.273
17264SOL     OW56638   6.800   1.610   2.681
17264SOL    HW156639   6.826   1.668   2.609
17264SOL    HW256640   6.876   1.555   2.696
17265SOL     OW56641   6.034   1.162   2.616
17265SOL    HW156642   5.976   1.140   2.689
17265SOL    HW256643   5.992   1.123   2.539
17266SOL     OW56644   6.838   1.811   2.489
17266SOL    HW156645   6.891   1.866   2.431
17266SOL    HW256646   6.761   1.864   2.508
17267SOL     OW56647   6.594   0.538   1.841
17267SOL    HW156648   6.505   0.546   1.806
17267SOL    HW256649   6.641   0.612   1.804
17268SOL     OW56650   5.722   0.512   3.235
17268SOL    HW156651   5.813   0.511   3.204
17268SOL    HW256652   5.719   0.584   3.297
17269SOL     OW56653   6.220   0.246   3.034
17269SOL    HW156654   6.282   0.173   3.031
17269SOL    HW256655   6.144   0.210   3.079
17270SOL     OW56656   6.410   0.479   2.510
17270SOL    HW156657   6.416   0.537   2.434
17270SOL    HW256658   6.428   0.391   2.474
17271SOL     OW56659   7.094   1.179   2.703
17271SOL    HW156660   7.035   1.116   2.661
17271SOL    HW256661   7.164   1.193   2.639
17272SOL     OW56662   7.031   0.620   2.838
17272SOL    HW156663   6.994   0.535   2.813
17272SOL    HW256664   7.098   0.599   2.903
17273SOL     OW56665   7.420   0.829   2.263
17273SOL    HW156666   7.484   0.784   2.318
17273SOL    HW256667   7.370   0.758   2.222
17274SOL     OW56668   6.032   1.543   2.041
17274SOL    HW156669   5.967   1.493   2.090
17274SOL    HW256670   6.010   1.526   1.949
17275SOL     OW56671   7.306   1.274   2.528
17275SOL    HW156672   7.397   1.249   2.539
17275SOL    HW256673   7.309   1.361   2.487
17276SOL     OW56674   6.963   0.576   1.937
17276SOL    HW156675   6.917   0.546   2.015
17276SOL    HW256676   7.043   0.522   1.934
17277SOL     OW56677   6.101   0.177   2.187
17277SOL    HW156678   6.171   0.158   2.125
17277SOL    HW256679   6.074   0.267   2.167
17278SOL     OW56680   7.303   1.288   3.387
17278SOL    HW156681   7.383   1.236   3.380
17278SOL    HW256682   7.331   1.372   3.422
17279SOL     OW56683   6.632   1.383   3.226
17279SOL    HW156684   6.552   1.335   3.244
17279SOL    HW256685   6.702   1.319   3.235
17280SOL     OW56686   7.207   1.765   3.481
17280SOL    HW156687   7.180   1.741   3.392
17280SOL    HW256688   7.262   1.693   3.509
17281SOL     OW56689   6.693   1.215   2.952
17281SOL    HW156690   6.601   1.197   2.972
17281SOL    HW256691   6.703   1.191   2.860
17282SOL     OW56692   7.204   1.079   2.943
17282SOL    HW156693   7.179   1.137   3.015
17282SOL    HW256694   7.149   1.106   2.870
17283SOL     OW56695   6.544   1.123   3.630
17283SOL    HW156696   6.450   1.120   3.647
17283SOL    HW256697   6.558   1.060   3.560
17284SOL     OW56698   6.289   1.051   2.224
17284SOL    HW156699   6.285   1.046   2.319
17284SOL    HW256700   6.372   1.010   2.201
17285SOL     OW56701   5.994   0.794   3.153
17285SOL    HW156702   6.073   0.795   3.207
17285SOL    HW256703   5.980   0.702   3.131
17286SOL     OW56704   5.653   1.577   3.173
17286SOL    HW156705   5.624   1.489   3.145
17286SOL    HW256706   5.748   1.573   3.170
17287SOL     OW56707   5.884   1.051   2.411
17287SOL    HW156708   5.896   1.058   2.317
17287SOL    HW256709   5.865   0.958   2.427
17288SOL     OW56710   6.229   0.543   2.709
17288SOL    HW156711   6.286   0.534   2.632
17288SOL    HW256712   6.172   0.617   2.688
17289SOL     OW56713   6.834   1.358   2.242
17289SOL    HW156714   6.894   1.423   2.279
17289SOL    HW256715   6.748   1.382   2.278
17290SOL     OW56716   6.844   1.452   2.974
17290SOL    HW156717   6.893   1.453   3.056
17290SOL    HW256718   6.789   1.375   2.980
17291SOL     OW56719   7.112   0.652   2.350
17291SOL    HW156720   7.048   0.700   2.297
17291SOL    HW256721   7.182   0.631   2.289
17292SOL     OW56722   5.926   1.565   3.136
17292SOL    HW156723   5.926   1.505   3.062
17292SOL    HW256724   6.018   1.583   3.152
17293SOL     OW56725   6.070   0.710   3.523
17293SOL    HW156726   6.110   0.747   3.445
17293SOL    HW256727   6.132   0.644   3.554
17294SOL     OW56728   7.214   0.811   3.573
17294SOL    HW156729   7.127   0.847   3.559
17294SOL    HW256730   7.264   0.838   3.496
17295SOL     OW56731   6.587   0.105   3.653
17295SOL    HW156732   6.664   0.156   3.678
17295SOL    HW256733   6.613   0.058   3.574
17296SOL     OW56734   6.045   0.052   3.616
17296SOL    HW156735   6.093   0.094   3.544
17296SOL    HW256736   5.978   0.116   3.641
17297SOL     OW56737   6.135   0.806   2.906
17297SOL    HW156738   6.077   0.773   2.838
17297SOL    HW256739   6.077   0.822   2.981
17298SOL     OW56740   6.930   0.879   2.868
17298SOL    HW156741   6.922   0.906   2.776
17298SOL    HW256742   6.962   0.789   2.863
17299SOL     OW56743   6.797   0.502   2.144
17299SOL    HW156744   6.793   0.431   2.207
17299SOL    HW256745   6.756   0.576   2.188
17300SOL     OW56746   5.972   0.173   3.144
17300SOL    HW156747   5.898   0.201   3.091
17300SOL    HW256748   5.963   0.078   3.150
17301SOL     OW56749   5.611   1.313   3.111
17301SOL    HW156750   5.662   1.251   3.163
17301SOL    HW256751   5.521   1.282   3.117
17302SOL     OW56752   6.349   0.643   2.950
17302SOL    HW156753   6.347   0.594   2.868
17302SOL    HW256754   6.276   0.705   2.942
17303SOL     OW56755   7.373   0.954   3.749
17303SOL    HW156756   7.316   0.900   3.694
17303SOL    HW256757   7.325   0.966   3.830
17304SOL     OW56758   7.125   0.312   2.246
17304SOL    HW156759   7.170   0.270   2.319
17304SOL    HW256760   7.193   0.362   2.201
17305SOL     OW56761   6.587   0.782   2.777
17305SOL    HW156762   6.591   0.806   2.870
17305SOL    HW256763   6.574   0.688   2.777
17306SOL     OW56764   6.562   1.546   3.594
17306SOL    HW156765   6.492   1.537   3.530
17306SOL    HW256766   6.621   1.472   3.575
17307SOL     OW56767   7.407   1.552   3.465
17307SOL    HW156768   7.446   1.559   3.378
17307SOL    HW256769   7.481   1.543   3.524
17308SOL     OW56770   5.942   0.909   3.666
17308SOL    HW156771   6.007   0.924   3.734
17308SOL    HW256772   5.978   0.837   3.614
17309SOL     OW56773   7.006   0.239   2.010
17309SOL    HW156774   7.035   0.255   2.100
17309SOL    HW256775   7.060   0.297   1.957
17310SOL     OW56776   6.894   0.839   1.929
17310SOL    HW156777   6.920   0.747   1.934
17310SOL    HW256778   6.893   0.859   1.836
17311SOL     OW56779   6.617   1.403   2.627
17311SOL    HW156780   6.648   1.313   2.640
17311SOL    HW256781   6.693   1.457   2.649
17312SOL     OW56782   5.779   0.827   2.881
17312SOL    HW156783   5.848   0.779   2.835
17312SOL    HW256784   5.722   0.759   2.916
17313SOL     OW56785   6.676   0.397   3.441
17313SOL    HW156786   6.630   0.413   3.524
17313SOL    HW256787   6.767   0.419   3.460
17314SOL     OW56788   5.643   1.315   2.074
17314SOL    HW156789   5.560   1.345   2.038
17314SOL    HW256790   5.625   1.228   2.108
17315SOL     OW56791   5.701   1.817   2.761
17315SOL    HW156792   5.663   1.744   2.713
17315SOL    HW256793   5.793   1.819   2.733
17316SOL     OW56794   6.104   1.585   2.785
17316SOL    HW156795   6.181   1.626   2.823
17316SOL    HW256796   6.139   1.524   2.720
17317SOL     OW56797   6.525   0.839   3.044
17317SOL    HW156798   6.572   0.805   3.121
17317SOL    HW256799   6.463   0.770   3.022
17318SOL     OW56800   5.631   0.574   2.979
17318SOL    HW156801   5.700   0.548   2.918
17318SOL    HW256802   5.664   0.547   3.065
17319SOL     OW56803   5.776   0.565   3.615
17319SOL    HW156804   5.863   0.549   3.578
17319SOL    HW256805   5.733   0.622   3.552
17320SOL     OW56806   6.974   0.934   3.513
17320SOL    HW156807   6.997   1.026   3.502
17320SOL    HW256808   6.965   0.900   3.424
17321SOL     OW56809   6.422   0.585   2.256
17321SOL    HW156810   6.446   0.520   2.190
17321SOL    HW256811   6.333   0.611   2.233
17322SOL     OW56812   7.227   0.583   3.035
17322SOL    HW156813   7.217   0.521   3.107
17322SOL    HW256814   7.316   0.567   3.002
17323SOL     OW56815   5.814   1.545   3.596
17323SOL    HW156816   5.773   1.565   3.680
17323SOL    HW256817   5.847   1.456   3.606
17324SOL     OW56818   6.406   0.433   3.117
17324SOL    HW156819   6.343   0.367   3.090
17324SOL    HW256820   6.388   0.508   3.059
17325SOL     OW56821   6.463   1.704   3.351
17325SOL    HW156822   6.468   1.646   3.275
17325SOL    HW256823   6.554   1.725   3.372
17326SOL     OW56824   6.024   0.428   2.085
17326SOL    HW156825   6.086   0.494   2.114
17326SOL    HW256826   5.942   0.477   2.074
17327SOL     OW56827   5.739   1.159   3.321
17327SOL    HW156828   5.751   1.118   3.407
17327SOL    HW256829   5.760   1.090   3.259
17328SOL     OW56830   6.868   1.037   3.080
17328SOL    HW156831   6.895   0.980   3.008
17328SOL    HW256832   6.805   1.097   3.041
17329SOL     OW56833   6.926   0.807   2.204
17329SOL    HW156834   6.838   0.781   2.231
17329SOL    HW256835   6.916   0.830   2.111
17330SOL     OW56836   7.325   1.725   2.988
17330SOL    HW156837   7.407   1.748   2.944
17330SOL    HW256838   7.322   1.629   2.984
17331SOL     OW56839   6.848   1.745   2.962
17331SOL    HW156840   6.891   1.721   3.044
17331SOL    HW256841   6.828   1.662   2.920
17332SOL     OW56842   5.643   1.374   2.840
17332SOL    HW156843   5.639   1.359   2.934
17332SOL    HW256844   5.616   1.291   2.801
17333SOL     OW56845   6.332   1.772   3.594
17333SOL    HW156846   6.253   1.819   3.567
17333SOL    HW256847   6.369   1.738   3.512
17334SOL     OW56848   7.260   0.178   2.437
17334SOL    HW156849   7.319   0.129   2.379
17334SOL    HW256850   7.225   0.111   2.497
17335SOL     OW56851   6.969   1.586   2.361
17335SOL    HW156852   7.020   1.620   2.288
17335SOL    HW256853   6.918   1.661   2.393
17336SOL     OW56854   5.712   1.840   3.717
17336SOL    HW156855   5.684   1.752   3.744
17336SOL    HW256856   5.781   1.862   3.780
17337SOL     OW56857   6.908   0.992   2.592
17337SOL    HW156858   6.962   0.914   2.582
17337SOL    HW256859   6.918   1.039   2.510
17338SOL     OW56860   6.380   1.282   3.272
17338SOL    HW156861   6.358   1.325   3.354
17338SOL    HW256862   6.305   1.298   3.215
17339SOL     OW56863   6.332   1.642   1.993
17339SOL    HW156864   6.311   1.665   1.902
17339SOL    HW256865   6.377   1.558   1.986
17340SOL     OW56866   7.149   1.737   3.204
17340SOL    HW156867   7.213   1.722   3.135
17340SOL    HW256868   7.148   1.831   3.217
17341SOL     OW56869   7.442   0.155   2.803
17341SOL    HW156870   7.466   0.097   2.730
17341SOL    HW256871   7.358   0.192   2.776
17342SOL     OW56872   6.771   1.554   1.910
17342SOL    HW156873   6.761   1.461   1.932
17342SOL    HW256874   6.710   1.568   1.838
17343SOL     OW56875   6.393   1.004   3.236
17343SOL    HW156876   6.436   0.979   3.154
17343SOL    HW256877   6.396   1.100   3.236
17344SOL     OW56878   6.532   0.948   2.153
17344SOL    HW156879   6.572   0.970   2.069
17344SOL    HW256880   6.584   0.875   2.186
17345SOL     OW56881   7.027   1.687   1.900
17345SOL    HW156882   6.948   1.634   1.887
17345SOL    HW256883   7.082   1.667   1.825
17346SOL     OW56884   5.921   1.367   3.348
17346SOL    HW156885   5.919   1.425   3.272
17346SOL    HW256886   5.858   1.298   3.328
17347SOL     OW56887   7.147   1.265   3.147
17347SOL    HW156888   7.203   1.260   3.225
17347SOL    HW256889   7.078   1.327   3.171
17348SOL     OW56890   6.693   1.146   2.685
17348SOL    HW156891   6.613   1.093   2.679
17348SOL    HW256892   6.762   1.089   2.651
17349SOL     OW56893   6.127   1.453   2.327
17349SOL    HW156894   6.194   1.391   2.298
17349SOL    HW256895   6.045   1.416   2.296
17350SOL     OW56896   7.382   0.371   3.277
17350SOL    HW156897   7.453   0.432   3.255
17350SOL    HW256898   7.380   0.309   3.204
17351SOL     OW56899   5.863   1.412   2.216
17351SOL    HW156900   5.792   1.373   2.165
17351SOL    HW256901   5.823   1.438   2.298
17352SOL     OW56902   5.729   1.066   3.586
17352SOL    HW156903   5.649   1.039   3.630
17352SOL    HW256904   5.795   1.003   3.616
17353SOL     OW56905   6.215   0.198   3.447
17353SOL    HW156906   6.266   0.129   3.404
17353SOL    HW256907   6.278   0.243   3.503
17354SOL     OW56908   5.697   0.348   1.852
17354SOL    HW156909   5.616   0.342   1.801
17354SOL    HW256910   5.731   0.435   1.832
17355SOL     OW56911   6.978   0.848   3.251
17355SOL    HW156912   6.927   0.907   3.196
17355SOL    HW256913   7.065   0.845   3.210
17356SOL     OW56914   5.636   0.198   2.108
17356SOL    HW156915   5.642   0.258   2.033
17356SOL    HW256916   5.714   0.143   2.100
17357SOL     OW56917   6.691   1.287   1.993
17357SOL    HW156918   6.687   1.197   1.961
17357SOL    HW256919   6.749   1.283   2.069
17358SOL     OW56920   6.222   0.798   3.305
17358SOL    HW156921   6.271   0.877   3.281
17358SOL    HW256922   6.289   0.729   3.310
17359SOL     OW56923   7.131   1.753   2.791
17359SOL    HW156924   7.147   1.691   2.720
17359SOL    HW256925   7.201   1.737   2.854
17360SOL     OW56926   6.289   0.542   3.592
17360SOL    HW156927   6.352   0.603   3.631
17360SOL    HW256928   6.315   0.456   3.626
17361SOL     OW56929   7.055   1.200   3.489
17361SOL    HW156930   7.057   1.234   3.579
17361SOL    HW256931   7.142   1.221   3.454
17362SOL     OW56932   5.946   1.752   3.445
17362SOL    HW156933   5.857   1.787   3.435
17362SOL    HW256934   5.933   1.667   3.488
17363SOL     OW56935   7.218   0.852   3.111
17363SOL    HW156936   7.222   0.766   3.069
17363SOL    HW256937   7.213   0.914   3.038
17364SOL     OW56938   6.748   0.291   2.333
17364SOL    HW156939   6.821   0.229   2.325
17364SOL    HW256940   6.771   0.346   2.407
17365SOL     OW56941   7.325   0.379   3.548
17365SOL    HW156942   7.346   0.384   3.455
17365SOL    HW256943   7.245   0.327   3.552
17366SOL     OW56944   7.333   0.917   3.351
17366SOL    HW156945   7.386   0.993   3.329
17366SOL    HW256946   7.295   0.889   3.268
17367SOL     OW56947   6.450   1.407   1.917
17367SOL    HW156948   6.524   1.355   1.949
17367SOL    HW256949   6.482   1.447   1.836
17368SOL     OW56950   6.305   1.772   2.851
17368SOL    HW156951   6.276   1.850   2.803
17368SOL    HW256952   6.387   1.747   2.808
17369SOL     OW56953   6.449   1.016   2.723
17369SOL    HW156954   6.482   0.927   2.734
17369SOL    HW256955   6.423   1.043   2.811
17370SOL     OW56956   6.666   1.006   1.914
17370SOL    HW156957   6.623   0.976   1.834
17370SOL    HW256958   6.743   0.949   1.922
17371SOL     OW56959   7.441   1.560   2.719
17371SOL    HW156960   7.361   1.532   2.674
17371SOL    HW256961   7.476   1.480   2.759
17372SOL     OW56962   5.851   1.286   3.704
17372SOL    HW156963   5.803   1.213   3.664
17372SOL    HW256964   5.829   1.281   3.797
17373SOL     OW56965   5.705   1.228   2.526
17373SOL    HW156966   5.673   1.178   2.601
17373SOL    HW256967   5.763   1.167   2.480
17374SOL     OW56968   6.317   1.412   3.513
17374SOL    HW156969   6.228   1.376   3.518
17374SOL    HW256970   6.348   1.412   3.604
17375SOL     OW56971   7.376   0.178   3.078
17375SOL    HW156972   7.348   0.088   3.091
17375SOL    HW256973   7.403   0.182   2.986
17376SOL     OW56974   7.280   1.458   2.993
17376SOL    HW156975   7.208   1.401   3.020
17376SOL    HW256976   7.359   1.412   3.021
17377SOL     OW56977   5.955   0.533   3.075
17377SOL    HW156978   6.018   0.461   3.074
17377SOL    HW256979   5.923   0.537   2.985
17378SOL     OW56980   6.369   1.601   2.545
17378SOL    HW156981   6.368   1.617   2.450
17378SOL    HW256982   6.314   1.523   2.556
17379SOL     OW56983   6.945   0.264   3.013
17379SOL    HW156984   7.038   0.248   2.998
17379SOL    HW256985   6.922   0.204   3.084
17380SOL     OW56986   6.345   1.324   2.234
17380SOL    HW156987   6.322   1.232   2.220
17380SOL    HW256988   6.441   1.325   2.234
17381SOL     OW56989   6.199   1.607   3.135
17381SOL    HW156990   6.196   1.694   3.175
17381SOL    HW256991   6.291   1.596   3.109
17382SOL     OW56992   6.932   9.987   1.930
17382SOL    HW156993   6.960   0.073   1.962
17382SOL    HW256994   6.902   9.941   2.008
17383SOL     OW56995   6.776   0.471   2.536
17383SOL    HW156996   6.771   0.567   2.533
17383SOL    HW256997   6.837   0.452   2.607
17384SOL     OW56998   7.207   0.285   2.758
17384SOL    HW156999   7.158   0.224   2.703
17384SOL    HW257000   7.207   0.367   2.708
17385SOL     OW57001   5.622   1.052   2.168
17385SOL    HW157002   5.715   1.041   2.147
17385SOL    HW257003   5.597   0.968   2.207
17386SOL     OW57004   6.415   1.670   2.275
17386SOL    HW157005   6.469   1.670   2.196
17386SOL    HW257006   6.428   1.757   2.314
17387SOL     OW57007   5.787   0.661   3.881
17387SOL    HW157008   5.700   0.634   3.910
17387SOL    HW257009   5.787   0.644   3.787
17388SOL     OW57010   5.756   0.269   4.755
17388SOL    HW157011   5.829   0.214   4.728
17388SOL    HW257012   5.679   0.231   4.711
17389SOL     OW57013   5.571   0.405   4.358
17389SOL    HW157014   5.482   0.423   4.389
17389SOL    HW257015   5.579   0.310   4.359
17390SOL     OW57016   6.155   1.289   4.835
17390SOL    HW157017   6.179   1.198   4.817
17390SOL    HW257018   6.218   1.341   4.785
17391SOL     OW57019   6.743   0.714   4.394
17391SOL    HW157020   6.787   0.798   4.381
17391SOL    HW257021   6.692   0.726   4.474
17392SOL     OW57022   7.420   0.594   3.917
17392SOL    HW157023   7.343   0.612   3.863
17392SOL    HW257024   7.450   0.508   3.889
17393SOL     OW57025   6.328   1.092   4.733
17393SOL    HW157026   6.362   1.080   4.822
17393SOL    HW257027   6.363   1.177   4.706
17394SOL     OW57028   6.227   0.954   4.366
17394SOL    HW157029   6.305   0.947   4.421
17394SOL    HW257030   6.176   1.024   4.406
17395SOL     OW57031   6.258   1.174   5.587
17395SOL    HW157032   6.296   1.257   5.618
17395SOL    HW257033   6.184   1.200   5.533
17396SOL     OW57034   5.909   1.500   4.834
17396SOL    HW157035   5.836   1.455   4.792
17396SOL    HW257036   5.967   1.525   4.762
17397SOL     OW57037   7.091   1.478   5.055
17397SOL    HW157038   7.112   1.566   5.086
17397SOL    HW257039   7.096   1.424   5.134
17398SOL     OW57040   6.008   0.458   5.228
17398SOL    HW157041   6.083   0.400   5.231
17398SOL    HW257042   5.933   0.401   5.247
17399SOL     OW57043   7.183   0.445   4.413
17399SOL    HW157044   7.089   0.453   4.396
17399SOL    HW257045   7.211   0.534   4.434
17400SOL     OW57046   5.815   1.731   4.192
17400SOL    HW157047   5.837   1.801   4.253
17400SOL    HW257048   5.895   1.717   4.141
17401SOL     OW57049   6.670   1.347   5.423
17401SOL    HW157050   6.758   1.314   5.437
17401SOL    HW257051   6.614   1.269   5.429
17402SOL     OW57052   5.777   1.463   4.251
17402SOL    HW157053   5.786   1.557   4.239
17402SOL    HW257054   5.746   1.453   4.341
17403SOL     OW57055   5.838   1.043   4.610
17403SOL    HW157056   5.865   0.954   4.632
17403SOL    HW257057   5.811   1.082   4.693
17404SOL     OW57058   6.133   1.777   5.166
17404SOL    HW157059   6.056   1.766   5.222
17404SOL    HW257060   6.207   1.774   5.227
17405SOL     OW57061   6.139   0.967   3.888
17405SOL    HW157062   6.187   1.008   3.816
17405SOL    HW257063   6.182   0.999   3.967
17406SOL     OW57064   7.110   0.102   5.169
17406SOL    HW157065   7.175   0.147   5.115
17406SOL    HW257066   7.112   0.148   5.253
17407SOL     OW57067   5.677   0.650   4.263
17407SOL    HW157068   5.642   0.563   4.281
17407SOL    HW257069   5.681   0.693   4.349
17408SOL     OW57070   7.422   1.758   4.027
17408SOL    HW157071   7.498   1.739   4.081
17408SOL    HW257072   7.432   1.850   4.002
17409SOL     OW57073   5.658   1.585   3.823
17409SOL    HW157074   5.636   1.492   3.836
17409SOL    HW257075   5.627   1.628   3.902
17410SOL     OW57076   7.250   0.870   4.340
17410SOL    HW157077   7.309   0.830   4.276
17410SOL    HW257078   7.253   0.964   4.319
17411SOL     OW57079   7.242   1.137   4.245
17411SOL    HW157080   7.328   1.173   4.223
17411SOL    HW257081   7.224   1.170   4.333
17412SOL     OW57082   5.695   0.707   5.274
17412SOL    HW157083   5.782   0.746   5.282
17412SOL    HW257084   5.635   0.781   5.267
17413SOL     OW57085   6.172   1.388   4.473
17413SOL    HW157086   6.128   1.304   4.464
17413SOL    HW257087   6.184   1.419   4.383
17414SOL     OW57088   6.846   1.251   5.138
17414SOL    HW157089   6.861   1.177   5.079
17414SOL    HW257090   6.912   1.241   5.206
17415SOL     OW57091   6.430   0.037   4.273
17415SOL    HW157092   6.455   0.124   4.242
17415SOL    HW257093   6.335   0.034   4.262
17416SOL     OW57094   5.767   0.980   4.946
17416SOL    HW157095   5.854   0.938   4.951
17416SOL    HW257096   5.707   0.907   4.932
17417SOL     OW57097   7.224   0.968   3.987
17417SOL    HW157098   7.143   0.917   3.993
17417SOL    HW257099   7.219   1.028   4.062
17418SOL     OW57100   6.796   1.824   5.329
17418SOL    HW157101   6.868   1.802   5.389
17418SOL    HW257102   6.782   1.744   5.279
17419SOL     OW57103   5.886   0.260   5.544
17419SOL    HW157104   5.935   0.326   5.594
17419SOL    HW257105   5.799   0.260   5.585
17420SOL     OW57106   7.223   1.732   4.325
17420SOL    HW157107   7.284   1.665   4.295
17420SOL    HW257108   7.219   1.720   4.420
17421SOL     OW57109   6.154   0.696   4.003
17421SOL    HW157110   6.157   0.782   3.961
17421SOL    HW257111   6.090   0.705   4.073
17422SOL     OW57112   6.872   0.382   4.663
17422SOL    HW157113   6.787   0.340   4.677
17422SOL    HW257114   6.933   0.330   4.715
17423SOL     OW57115   7.134   1.730   4.000
17423SOL    HW157116   7.229   1.720   4.008
17423SOL    HW257117   7.102   1.643   3.977
17424SOL     OW57118   6.952   0.468   5.395
17424SOL    HW157119   6.862   0.436   5.400
17424SOL    HW257120   6.975   0.488   5.485
17425SOL     OW57121   6.446   0.871   5.223
17425SOL    HW157122   6.473   0.872   5.315
17425SOL    HW257123   6.526   0.851   5.174
17426SOL     OW57124   6.615   0.411   4.952
17426SOL    HW157125   6.556   0.355   5.002
17426SOL    HW257126   6.606   0.380   4.862
17427SOL     OW57127   6.632   0.687   4.143
17427SOL    HW157128   6.665   0.687   4.233
17427SOL    HW257129   6.546   0.644   4.149
17428SOL     OW57130   5.694   0.810   4.488
17428SOL    HW157131   5.750   0.770   4.555
17428SOL    HW257132   5.738   0.892   4.466
17429SOL     OW57133   5.678   1.901   5.341
17429SOL    HW157134   5.695   1.894   5.435
17429SOL    HW257135   5.601   1.846   5.327
17430SOL     OW57136   6.457   0.377   3.927
17430SOL    HW157137   6.525   0.416   3.872
17430SOL    HW257138   6.403   0.327   3.867
17431SOL     OW57139   7.265   0.586   5.574
17431SOL    HW157140   7.250   0.663   5.519
17431SOL    HW257141   7.298   0.520   5.514
17432SOL     OW57142   6.978   1.101   4.166
17432SOL    HW157143   7.067   1.117   4.199
17432SOL    HW257144   6.957   1.179   4.115
17433SOL     OW57145   6.196   0.208   4.708
17433SOL    HW157146   6.182   0.239   4.797
17433SOL    HW257147   6.196   0.288   4.655
17434SOL     OW57148   5.924   1.822   4.615
17434SOL    HW157149   5.975   1.741   4.622
17434SOL    HW257150   5.986   1.892   4.635
17435SOL     OW57151   7.386   0.993   4.726
17435SOL    HW157152   7.374   1.073   4.675
17435SOL    HW257153   7.474   1.001   4.763
17436SOL     OW57154   6.763   1.567   5.202
17436SOL    HW157155   6.752   1.486   5.252
17436SOL    HW257156   6.805   1.540   5.121
17437SOL     OW57157   5.879   0.925   3.988
17437SOL    HW157158   5.965   0.938   3.949
17437SOL    HW257159   5.853   0.837   3.960
17438SOL     OW57160   7.035   0.816   4.497
17438SOL    HW157161   7.053   0.743   4.557
17438SOL    HW257162   7.117   0.830   4.451
17439SOL     OW57163   6.021   1.228   5.442
17439SOL    HW157164   6.006   1.134   5.442
17439SOL    HW257165   5.948   1.264   5.493
17440SOL     OW57166   5.777   0.312   5.292
17440SOL    HW157167   5.684   0.327   5.308
17440SOL    HW257168   5.808   0.267   5.371
17441SOL     OW57169   7.199   1.369   3.784
17441SOL    HW157170   7.206   1.434   3.714
17441SOL    HW257171   7.129   1.402   3.841
17442SOL     OW57172   6.057   1.738   4.062
17442SOL    HW157173   6.117   1.784   4.122
17442SOL    HW257174   6.113   1.705   3.992
17443SOL     OW57175   6.952   0.134   4.140
17443SOL    HW157176   6.970   0.076   4.067
17443SOL    HW257177   7.023   0.198   4.138
17444SOL     OW57178   5.906   1.742   4.980
17444SOL    HW157179   5.988   1.744   5.029
17444SOL    HW257180   5.914   1.666   4.922
17445SOL     OW57181   6.560   1.687   4.570
17445SOL    HW157182   6.641   1.637   4.572
17445SOL    HW257183   6.514   1.656   4.492
17446SOL     OW57184   5.958   0.672   4.201
17446SOL    HW157185   5.975   0.579   4.212
17446SOL    HW257186   5.863   0.680   4.204
17447SOL     OW57187   7.112   0.241   5.407
17447SOL    HW157188   7.107   0.223   5.501
17447SOL    HW257189   7.054   0.316   5.394
17448SOL     OW57190   6.221   0.120   3.820
17448SOL    HW157191   6.244   0.043   3.872
17448SOL    HW257192   6.155   0.088   3.758
17449SOL     OW57193   6.271   0.349   5.498
17449SOL    HW157194   6.359   0.326   5.468
17449SOL    HW257195   6.258   0.295   5.576
17450SOL     OW57196   6.437   1.515   4.916
17450SOL    HW157197   6.423   1.480   4.827
17450SOL    HW257198   6.496   1.452   4.957
17451SOL     OW57199   6.925   0.607   5.155
17451SOL    HW157200   6.952   0.572   5.239
17451SOL    HW257201   6.970   0.691   5.148
17452SOL     OW57202   6.368   1.378   4.674
17452SOL    HW157203   6.457   1.373   4.642
17452SOL    HW257204   6.314   1.390   4.596
17453SOL     OW57205   6.517   0.502   4.629
17453SOL    HW157206   6.491   0.496   4.537
17453SOL    HW257207   6.548   0.414   4.651
17454SOL     OW57208   6.161   0.044   4.208
17454SOL    HW157209   6.091   0.035   4.272
17454SOL    HW257210   6.137   0.119   4.154
17455SOL     OW57211   5.851   0.081   3.989
17455SOL    HW157212   5.931   0.130   4.007
17455SOL    HW257213   5.854   0.008   4.052
17456SOL     OW57214   6.524   0.274   4.178
17456SOL    HW157215   6.496   0.305   4.092
17456SOL    HW257216   6.616   0.301   4.184
17457SOL     OW57217   6.655   0.640   5.099
17457SOL    HW157218   6.640   0.559   5.050
17457SOL    HW257219   6.748   0.638   5.121
17458SOL     OW57220   6.804   1.558   4.553
17458SOL    HW157221   6.855   1.572   4.473
17458SOL    HW257222   6.869   1.548   4.622
17459SOL     OW57223   6.034   1.150   4.436
17459SOL    HW157224   5.972   1.114   4.499
17459SOL    HW257225   5.991   1.138   4.351
17460SOL     OW57226   6.816   1.851   4.303
17460SOL    HW157227   6.888   1.886   4.251
17460SOL    HW257228   6.840   1.760   4.319
17461SOL     OW57229   6.635   0.499   3.745
17461SOL    HW157230   6.591   0.577   3.712
17461SOL    HW257231   6.693   0.531   3.814
17462SOL     OW57232   5.675   0.522   5.067
17462SOL    HW157233   5.763   0.547   5.041
17462SOL    HW257234   5.657   0.576   5.145
17463SOL     OW57235   6.120   0.290   4.965
17463SOL    HW157236   6.159   0.269   5.050
17463SOL    HW257237   6.028   0.265   4.975
17464SOL     OW57238   6.444   0.467   4.368
17464SOL    HW157239   6.401   0.523   4.304
17464SOL    HW257240   6.469   0.389   4.318
17465SOL     OW57241   6.548   0.062   4.529
17465SOL    HW157242   6.505   0.056   4.444
17465SOL    HW257243   6.545   9.973   4.564
17466SOL     OW57244   6.923   1.215   4.537
17466SOL    HW157245   6.894   1.137   4.490
17466SOL    HW257246   7.017   1.218   4.522
17467SOL     OW57247   7.031   0.617   4.697
17467SOL    HW157248   6.981   0.536   4.693
17467SOL    HW257249   7.091   0.605   4.771
17468SOL     OW57250   7.395   0.733   4.151
17468SOL    HW157251   7.464   0.693   4.205
17468SOL    HW257252   7.407   0.695   4.064
17469SOL     OW57253   6.097   1.445   3.937
17469SOL    HW157254   6.009   1.409   3.952
17469SOL    HW257255   6.155   1.369   3.939
17470SOL     OW57256   6.955   0.575   3.763
17470SOL    HW157257   6.921   0.553   3.849
17470SOL    HW257258   7.050   0.570   3.772
17471SOL     OW57259   6.080   0.243   4.026
17471SOL    HW157260   6.138   0.211   3.958
17471SOL    HW257261   6.047   0.326   3.993
17472SOL     OW57262   7.302   1.229   5.287
17472SOL    HW157263   7.319   1.137   5.267
17472SOL    HW257264   7.385   1.262   5.322
17473SOL     OW57265   6.599   1.336   5.047
17473SOL    HW157266   6.538   1.288   5.104
17473SOL    HW257267   6.685   1.311   5.079
17474SOL     OW57268   7.214   1.675   5.382
17474SOL    HW157269   7.202   1.693   5.289
17474SOL    HW257270   7.299   1.631   5.388
17475SOL     OW57271   6.754   1.257   4.828
17475SOL    HW157272   6.677   1.274   4.881
17475SOL    HW257273   6.724   1.268   4.737
17476SOL     OW57274   6.471   0.215   5.090
17476SOL    HW157275   6.498   0.146   5.029
17476SOL    HW257276   6.541   0.217   5.156
17477SOL     OW57277   6.509   1.107   5.473
17477SOL    HW157278   6.427   1.116   5.522
17477SOL    HW257279   6.532   1.015   5.482
17478SOL     OW57280   6.281   1.051   4.111
17478SOL    HW157281   6.256   1.017   4.197
17478SOL    HW257282   6.364   1.006   4.091
17479SOL     OW57283   6.015   0.854   4.974
17479SOL    HW157284   6.081   0.854   5.043
17479SOL    HW257285   5.978   0.766   4.975
17480SOL     OW57286   6.885   0.372   5.012
17480SOL    HW157287   6.912   0.453   5.058
17480SOL    HW257288   6.794   0.388   4.989
17481SOL     OW57289   5.662   1.630   5.074
17481SOL    HW157290   5.602   1.660   5.006
17481SOL    HW257291   5.746   1.671   5.052
17482SOL     OW57292   5.882   1.116   4.200
17482SOL    HW157293   5.883   1.188   4.136
17482SOL    HW257294   5.886   1.037   4.146
17483SOL     OW57295   6.163   0.476   4.608
17483SOL    HW157296   6.156   0.533   4.532
17483SOL    HW257297   6.225   0.520   4.667
17484SOL     OW57298   6.870   1.503   4.892
17484SOL    HW157299   6.949   1.484   4.941
17484SOL    HW257300   6.836   1.418   4.865
17485SOL     OW57301   7.132   0.627   4.121
17485SOL    HW157302   7.072   0.696   4.092
17485SOL    HW257303   7.214   0.672   4.138
17486SOL     OW57304   5.977   0.735   5.314
17486SOL    HW157305   6.053   0.761   5.263
17486SOL    HW257306   5.973   0.640   5.305
17487SOL     OW57307   7.212   0.812   5.424
17487SOL    HW157308   7.124   0.848   5.421
17487SOL    HW257309   7.257   0.852   5.350
17488SOL     OW57310   6.528   0.071   5.472
17488SOL    HW157311   6.530   0.164   5.449
17488SOL    HW257312   6.589   0.029   5.411
17489SOL     OW57313   6.071   0.044   5.564
17489SOL    HW157314   6.104   9.997   5.488
17489SOL    HW257315   6.008   0.107   5.528
17490SOL     OW57316   6.168   0.860   4.739
17490SOL    HW157317   6.218   0.942   4.732
17490SOL    HW257318   6.121   0.868   4.822
17491SOL     OW57319   6.875   0.843   4.740
17491SOL    HW157320   6.910   0.891   4.664
17491SOL    HW257321   6.928   0.763   4.743
17492SOL     OW57322   6.785   0.528   3.978
17492SOL    HW157323   6.793   0.458   4.042
17492SOL    HW257324   6.743   0.600   4.027
17493SOL     OW57325   5.849   0.221   5.014
17493SOL    HW157326   5.805   0.263   5.088
17493SOL    HW257327   5.800   0.252   4.937
17494SOL     OW57328   5.659   1.353   4.978
17494SOL    HW157329   5.663   1.281   5.042
17494SOL    HW257330   5.657   1.432   5.032
17495SOL     OW57331   6.334   0.636   4.787
17495SOL    HW157332   6.398   0.608   4.722
17495SOL    HW257333   6.290   0.711   4.746
17496SOL     OW57334   7.356   0.950   5.617
17496SOL    HW157335   7.312   0.892   5.555
17496SOL    HW257336   7.286   0.988   5.670
17497SOL     OW57337   5.936   0.050   4.371
17497SOL    HW157338   5.896   0.136   4.386
17497SOL    HW257339   5.865   9.995   4.340
17498SOL     OW57340   7.127   0.353   4.119
17498SOL    HW157341   7.177   0.343   4.201
17498SOL    HW257342   7.119   0.447   4.107
17499SOL     OW57343   6.624   0.760   4.640
17499SOL    HW157344   6.698   0.784   4.696
17499SOL    HW257345   6.609   0.667   4.660
17500SOL     OW57346   6.481   1.552   5.387
17500SOL    HW157347   6.497   1.590   5.301
17500SOL    HW257348   6.542   1.479   5.393
17501SOL     OW57349   7.462   1.560   5.328
17501SOL    HW157350   7.483   1.556   5.235
17501SOL    HW257351   7.489   1.475   5.363
17502SOL     OW57352   5.957   0.958   5.482
17502SOL    HW157353   5.995   0.929   5.565
17502SOL    HW257354   5.962   0.882   5.425
17503SOL     OW57355   7.041   0.264   3.860
17503SOL    HW157356   7.034   0.172   3.883
17503SOL    HW257357   7.081   0.306   3.936
17504SOL     OW57358   6.875   0.838   3.752
17504SOL    HW157359   6.899   0.746   3.745
17504SOL    HW257360   6.908   0.877   3.671
17505SOL     OW57361   6.624   1.343   4.592
17505SOL    HW157362   6.632   1.269   4.532
17505SOL    HW257363   6.694   1.403   4.566
17506SOL     OW57364   5.908   0.776   4.665
17506SOL    HW157365   6.002   0.792   4.663
17506SOL    HW257366   5.900   0.685   4.694
17507SOL     OW57367   5.920   0.502   4.735
17507SOL    HW157368   5.861   0.428   4.722
17507SOL    HW257369   5.997   0.481   4.683
17508SOL     OW57370   6.726   0.214   5.204
17508SOL    HW157371   6.713   0.263   5.285
17508SOL    HW257372   6.805   0.252   5.165
17509SOL     OW57373   5.599   1.315   3.892
17509SOL    HW157374   5.509   1.338   3.869
17509SOL    HW257375   5.597   1.220   3.906
17510SOL     OW57376   5.659   1.781   4.662
17510SOL    HW157377   5.637   1.706   4.607
17510SOL    HW257378   5.752   1.795   4.648
17511SOL     OW57379   6.079   1.592   4.635
17511SOL    HW157380   6.155   1.650   4.628
17511SOL    HW257381   6.101   1.517   4.580
17512SOL     OW57382   6.501   0.804   4.945
17512SOL    HW157383   6.563   0.749   4.992
17512SOL    HW257384   6.449   0.742   4.893
17513SOL     OW57385   5.575   0.509   4.811
17513SOL    HW157386   5.617   0.433   4.770
17513SOL    HW257387   5.618   0.517   4.896
17514SOL     OW57388   5.749   0.537   5.485
17514SOL    HW157389   5.783   0.469   5.426
17514SOL    HW257390   5.707   0.600   5.426
17515SOL     OW57391   6.974   0.949   5.381
17515SOL    HW157392   6.991   1.043   5.370
17515SOL    HW257393   6.979   0.914   5.292
17516SOL     OW57394   6.381   0.572   4.114
17516SOL    HW157395   6.398   0.505   4.048
17516SOL    HW257396   6.305   0.620   4.080
17517SOL     OW57397   7.204   0.591   4.911
17517SOL    HW157398   7.202   0.546   4.995
17517SOL    HW257399   7.290   0.571   4.874
17518SOL     OW57400   5.782   1.553   5.476
17518SOL    HW157401   5.737   1.586   5.554
17518SOL    HW257402   5.803   1.462   5.497
17519SOL     OW57403   6.284   0.544   5.044
17519SOL    HW157404   6.248   0.456   5.035
17519SOL    HW257405   6.305   0.571   4.955
17520SOL     OW57406   6.510   1.667   5.138
17520SOL    HW157407   6.483   1.628   5.055
17520SOL    HW257408   6.604   1.649   5.144
17521SOL     OW57409   6.002   0.479   3.905
17521SOL    HW157410   6.071   0.542   3.925
17521SOL    HW257411   5.921   0.531   3.905
17522SOL     OW57412   5.707   1.145   5.160
17522SOL    HW157413   5.679   1.093   5.236
17522SOL    HW257414   5.720   1.081   5.090
17523SOL     OW57415   6.875   1.037   4.943
17523SOL    HW157416   6.872   0.964   4.881
17523SOL    HW257417   6.842   1.112   4.894
17524SOL     OW57418   6.977   0.838   4.016
17524SOL    HW157419   6.933   0.906   4.067
17524SOL    HW257420   6.934   0.840   3.931
17525SOL     OW57421   7.391   1.769   4.929
17525SOL    HW157422   7.464   1.782   4.868
17525SOL    HW257423   7.314   1.760   4.873
17526SOL     OW57424   6.918   1.766   4.821
17526SOL    HW157425   7.011   1.752   4.799
17526SOL    HW257426   6.886   1.679   4.846
17527SOL     OW57427   5.657   1.340   4.706
17527SOL    HW157428   5.650   1.341   4.801
17527SOL    HW257429   5.608   1.262   4.679
17528SOL     OW57430   6.269   1.721   5.421
17528SOL    HW157431   6.238   1.682   5.503
17528SOL    HW257432   6.352   1.677   5.403
17529SOL     OW57433   6.959   1.614   4.326
17529SOL    HW157434   6.973   1.541   4.266
17529SOL    HW257435   7.045   1.655   4.334
17530SOL     OW57436   5.726   1.862   5.612
17530SOL    HW157437   5.675   1.783   5.630
17530SOL    HW257438   5.789   1.867   5.684
17531SOL     OW57439   6.855   0.979   4.380
17531SOL    HW157440   6.926   0.927   4.418
17531SOL    HW257441   6.893   1.018   4.301
17532SOL     OW57442   6.432   1.207   5.222
17532SOL    HW157443   6.456   1.161   5.303
17532SOL    HW257444   6.356   1.260   5.247
17533SOL     OW57445   6.211   1.686   3.838
17533SOL    HW157446   6.261   1.686   3.757
17533SOL    HW257447   6.188   1.594   3.852
17534SOL     OW57448   7.182   1.733   5.115
17534SOL    HW157449   7.260   1.741   5.061
17534SOL    HW257450   7.136   1.817   5.105
17535SOL     OW57451   7.458   0.185   4.729
17535SOL    HW157452   7.521   0.131   4.681
17535SOL    HW257453   7.383   0.193   4.670
17536SOL     OW57454   5.823   0.300   4.439
17536SOL    HW157455   5.771   0.373   4.405
17536SOL    HW257456   5.758   0.236   4.468
17537SOL     OW57457   6.399   1.059   4.987
17537SOL    HW157458   6.439   0.971   4.989
17537SOL    HW257459   6.412   1.093   5.075
17538SOL     OW57460   6.508   0.917   4.052
17538SOL    HW157461   6.546   0.924   3.964
17538SOL    HW257462   6.553   0.843   4.092
17539SOL     OW57463   5.927   1.305   5.183
17539SOL    HW157464   5.964   1.282   5.268
17539SOL    HW257465   5.847   1.252   5.177
17540SOL     OW57466   6.621   1.117   4.439
17540SOL    HW157467   6.555   1.050   4.458
17540SOL    HW257468   6.698   1.069   4.412
17541SOL     OW57469   6.622   0.251   4.713
17541SOL    HW157470   6.597   0.199   4.637
17541SOL    HW257471   6.627   0.188   4.785
17542SOL     OW57472   6.201   1.481   4.212
17542SOL    HW157473   6.269   1.436   4.162
17542SOL    HW257474   6.137   1.508   4.146
17543SOL     OW57475   7.337   0.407   5.120
17543SOL    HW157476   7.418   0.456   5.102
17543SOL    HW257477   7.338   0.334   5.059
17544SOL     OW57478   5.843   1.336   4.018
17544SOL    HW157479   5.756   1.331   3.979
17544SOL    HW257480   5.830   1.383   4.101
17545SOL     OW57481   5.684   1.061   5.444
17545SOL    HW157482   5.610   1.015   5.483
17545SOL    HW257483   5.760   1.007   5.464
17546SOL     OW57484   6.233   0.284   5.218
17546SOL    HW157485   6.318   0.258   5.182
17546SOL    HW257486   6.247   0.286   5.313
17547SOL     OW57487   5.576   0.366   3.666
17547SOL    HW157488   5.595   0.326   3.751
17547SOL    HW257489   5.637   0.440   3.661
17548SOL     OW57490   7.023   0.872   5.117
17548SOL    HW157491   6.970   0.928   5.060
17548SOL    HW257492   7.111   0.877   5.079
17549SOL     OW57493   5.648   0.242   3.900
17549SOL    HW157494   5.577   0.255   3.962
17549SOL    HW257495   5.707   0.180   3.942
17550SOL     OW57496   6.201   0.776   5.163
17550SOL    HW157497   6.282   0.824   5.178
17550SOL    HW257498   6.228   0.696   5.118
17551SOL     OW57499   7.036   1.227   5.336
17551SOL    HW157500   7.035   1.240   5.431
17551SOL    HW257501   7.128   1.229   5.312
17552SOL     OW57502   5.907   1.743   5.320
17552SOL    HW157503   5.827   1.792   5.302
17552SOL    HW257504   5.878   1.666   5.370
17553SOL     OW57505   7.263   0.870   4.956
17553SOL    HW157506   7.247   0.780   4.929
17553SOL    HW257507   7.298   0.912   4.878
17554SOL     OW57508   6.787   0.347   4.191
17554SOL    HW157509   6.844   0.271   4.177
17554SOL    HW257510   6.828   0.394   4.264
17555SOL     OW57511   6.133   0.692   4.426
17555SOL    HW157512   6.175   0.776   4.409
17555SOL    HW257513   6.073   0.679   4.353
17556SOL     OW57514   7.351   0.379   5.399
17556SOL    HW157515   7.354   0.403   5.307
17556SOL    HW257516   7.275   0.321   5.406
17557SOL     OW57517   7.332   0.956   5.220
17557SOL    HW157518   7.424   0.954   5.246
17557SOL    HW257519   7.333   0.930   5.127
17558SOL     OW57520   6.391   1.362   3.780
17558SOL    HW157521   6.385   1.361   3.876
17558SOL    HW257522   6.482   1.337   3.762
17559SOL     OW57523   6.287   1.762   4.571
17559SOL    HW157524   6.302   1.742   4.478
17559SOL    HW257525   6.372   1.749   4.613
17560SOL     OW57526   6.439   0.932   4.538
17560SOL    HW157527   6.502   0.868   4.573
17560SOL    HW257528   6.407   0.979   4.615
17561SOL     OW57529   6.622   0.923   3.806
17561SOL    HW157530   6.609   1.001   3.752
17561SOL    HW257531   6.712   0.897   3.790
17562SOL     OW57532   5.777   1.293   5.556
17562SOL    HW157533   5.738   1.216   5.513
17562SOL    HW257534   5.725   1.306   5.634
17563SOL     OW57535   5.683   1.146   4.392
17563SOL    HW157536   5.736   1.130   4.470
17563SOL    HW257537   5.745   1.144   4.319
17564SOL     OW57538   6.221   1.370   5.300
17564SOL    HW157539   6.152   1.333   5.356
17564SOL    HW257540   6.252   1.447   5.348
17565SOL     OW57541   7.292   0.171   4.951
17565SOL    HW157542   7.269   0.078   4.950
17565SOL    HW257543   7.361   0.180   4.885
17566SOL     OW57544   6.001   0.411   4.252
17566SOL    HW157545   6.033   0.341   4.195
17566SOL    HW257546   5.959   0.365   4.325
17567SOL     OW57547   5.931   0.595   4.995
17567SOL    HW157548   5.979   0.541   5.057
17567SOL    HW257549   5.943   0.551   4.911
17568SOL     OW57550   6.396   1.636   4.343
17568SOL    HW157551   6.463   1.621   4.277
17568SOL    HW257552   6.319   1.590   4.310
17569SOL     OW57553   7.059   0.263   4.828
17569SOL    HW157554   7.136   0.231   4.874
17569SOL    HW257555   7.001   0.295   4.898
17570SOL     OW57556   6.635   0.059   4.916
17570SOL    HW157557   6.621   9.965   4.906
17570SOL    HW257558   6.711   0.066   4.973
17571SOL     OW57559   6.379   1.331   4.052
17571SOL    HW157560   6.381   1.245   4.093
17571SOL    HW257561   6.447   1.381   4.097
17572SOL     OW57562   6.179   1.566   4.999
17572SOL    HW157563   6.183   1.643   5.055
17572SOL    HW257564   6.269   1.553   4.970
17573SOL     OW57565   7.006   9.992   3.901
17573SOL    HW157566   7.052   9.959   3.823
17573SOL    HW257567   6.927   9.938   3.906
17574SOL     OW57568   6.905   0.481   4.405
17574SOL    HW157569   6.859   0.565   4.399
17574SOL    HW257570   6.887   0.450   4.494
17575SOL     OW57571   7.212   0.229   4.590
17575SOL    HW157572   7.156   0.242   4.666
17575SOL    HW257573   7.201   0.310   4.539
17576SOL     OW57574   5.631   1.049   3.976
17576SOL    HW157575   5.723   1.025   3.975
17576SOL    HW257576   5.584   0.966   3.981
17577SOL     OW57577   5.781   0.642   5.735
17577SOL    HW157578   5.691   0.638   5.768
17577SOL    HW257579   5.775   0.614   5.644
17578SOL     OW57580   5.579   0.401   6.212
17578SOL    HW157581   5.500   0.417   6.263
17578SOL    HW257582   5.557   0.327   6.155
17579SOL     OW57583   6.234   1.269   6.782
17579SOL    HW157584   6.164   1.209   6.757
17579SOL    HW257585   6.251   1.321   6.704
17580SOL     OW57586   7.152   1.488   6.274
17580SOL    HW157587   7.113   1.483   6.362
17580SOL    HW257588   7.080   1.518   6.218
17581SOL     OW57589   6.702   0.730   6.291
17581SOL    HW157590   6.749   0.813   6.287
17581SOL    HW257591   6.651   0.735   6.372
17582SOL     OW57592   7.348   0.607   5.833
17582SOL    HW157593   7.314   0.602   5.744
17582SOL    HW257594   7.441   0.587   5.824
17583SOL     OW57595   6.443   0.751   7.464
17583SOL    HW157596   6.450   0.809   7.540
17583SOL    HW257597   6.469   0.806   7.389
17584SOL     OW57598   6.276   0.959   6.228
17584SOL    HW157599   6.329   0.957   6.307
17584SOL    HW257600   6.207   1.023   6.246
17585SOL     OW57601   6.298   1.128   7.426
17585SOL    HW157602   6.337   1.206   7.465
17585SOL    HW257603   6.217   1.158   7.386
17586SOL     OW57604   7.066   1.517   6.943
17586SOL    HW157605   7.130   1.588   6.931
17586SOL    HW257606   7.046   1.520   7.036
17587SOL     OW57607   6.040   0.416   7.059
17587SOL    HW157608   6.111   0.354   7.076
17587SOL    HW257609   5.961   0.370   7.084
17588SOL     OW57610   7.173   0.455   6.308
17588SOL    HW157611   7.158   0.500   6.226
17588SOL    HW257612   7.149   0.519   6.376
17589SOL     OW57613   5.791   1.808   6.053
17589SOL    HW157614   5.817   1.860   6.130
17589SOL    HW257615   5.806   1.718   6.080
17590SOL     OW57616   6.708   1.325   7.303
17590SOL    HW157617   6.755   1.309   7.385
17590SOL    HW257618   6.659   1.244   7.288
17591SOL     OW57619   5.963   1.022   6.512
17591SOL    HW157620   5.926   0.933   6.517
17591SOL    HW257621   5.895   1.078   6.546
17592SOL     OW57622   6.177   1.792   6.976
17592SOL    HW157623   6.118   1.758   7.042
17592SOL    HW257624   6.264   1.782   7.014
17593SOL     OW57625   6.147   0.973   5.756
17593SOL    HW157626   6.188   1.023   5.685
17593SOL    HW257627   6.200   0.994   5.833
17594SOL     OW57628   7.116   0.088   7.020
17594SOL    HW157629   7.180   0.100   6.949
17594SOL    HW257630   7.142   0.151   7.086
17595SOL     OW57631   5.700   0.651   6.134
17595SOL    HW157632   5.663   0.566   6.154
17595SOL    HW257633   5.693   0.700   6.216
17596SOL     OW57634   7.356   1.879   6.016
17596SOL    HW157635   7.355   1.793   6.056
17596SOL    HW257636   7.440   1.884   5.971
17597SOL     OW57637   5.625   1.614   5.699
17597SOL    HW157638   5.612   1.521   5.719
17597SOL    HW257639   5.593   1.659   5.777
17598SOL     OW57640   7.276   0.904   6.240
17598SOL    HW157641   7.356   0.875   6.284
17598SOL    HW257642   7.294   0.891   6.147
17599SOL     OW57643   7.209   1.112   6.018
17599SOL    HW157644   7.290   1.082   5.977
17599SOL    HW257645   7.235   1.138   6.106
17600SOL     OW57646   5.667   0.762   7.155
17600SOL    HW157647   5.750   0.803   7.181
17600SOL    HW257648   5.603   0.833   7.160
17601SOL     OW57649   6.132   1.408   6.303
17601SOL    HW157650   6.123   1.314   6.291
17601SOL    HW257651   6.224   1.427   6.287
17602SOL     OW57652   6.863   1.223   7.011
17602SOL    HW157653   6.872   1.143   6.960
17602SOL    HW257654   6.930   1.216   7.079
17603SOL     OW57655   6.390   0.039   6.198
17603SOL    HW157656   6.427   0.112   6.150
17603SOL    HW257657   6.297   0.038   6.174
17604SOL     OW57658   5.829   0.964   6.885
17604SOL    HW157659   5.916   0.932   6.862
17604SOL    HW257660   5.772   0.887   6.875
17605SOL     OW57661   7.113   1.024   5.753
17605SOL    HW157662   7.040   0.964   5.734
17605SOL    HW257663   7.121   1.021   5.848
17606SOL     OW57664   6.698   1.805   7.144
17606SOL    HW157665   6.745   1.848   7.073
17606SOL    HW257666   6.730   1.715   7.143
17607SOL     OW57667   5.898   0.252   7.426
17607SOL    HW157668   5.928   0.336   7.393
17607SOL    HW257669   5.803   0.260   7.429
17608SOL     OW57670   7.007   1.435   6.510
17608SOL    HW157671   6.964   1.438   6.595
17608SOL    HW257672   7.023   1.342   6.494
17609SOL     OW57673   7.344   1.616   6.124
17609SOL    HW157674   7.343   1.583   6.034
17609SOL    HW257675   7.271   1.572   6.167
17610SOL     OW57676   6.164   0.684   5.864
17610SOL    HW157677   6.163   0.772   5.827
17610SOL    HW257678   6.101   0.688   5.936
17611SOL     OW57679   6.886   0.396   6.557
17611SOL    HW157680   6.801   0.351   6.551
17611SOL    HW257681   6.950   0.325   6.566
17612SOL     OW57682   7.115   1.664   5.884
17612SOL    HW157683   7.210   1.671   5.876
17612SOL    HW257684   7.088   1.610   5.810
17613SOL     OW57685   6.475   0.585   7.019
17613SOL    HW157686   6.429   0.578   7.103
17613SOL    HW257687   6.412   0.555   6.954
17614SOL     OW57688   6.953   0.462   7.263
17614SOL    HW157689   6.959   0.520   7.338
17614SOL    HW257690   7.014   0.390   7.282
17615SOL     OW57691   6.517   0.844   7.205
17615SOL    HW157692   6.538   0.755   7.175
17615SOL    HW257693   6.479   0.886   7.128
17616SOL     OW57694   6.607   0.428   6.797
17616SOL    HW157695   6.514   0.449   6.792
17616SOL    HW257696   6.627   0.386   6.713
17617SOL     OW57697   6.658   0.687   6.015
17617SOL    HW157698   6.668   0.690   6.110
17617SOL    HW257699   6.573   0.645   6.002
17618SOL     OW57700   5.681   0.811   6.359
17618SOL    HW157701   5.757   0.782   6.409
17618SOL    HW257702   5.641   0.878   6.413
17619SOL     OW57703   5.638   1.817   7.196
17619SOL    HW157704   5.682   1.843   7.277
17619SOL    HW257705   5.620   1.724   7.207
17620SOL     OW57706   6.447   0.339   5.813
17620SOL    HW157707   6.529   0.333   5.765
17620SOL    HW257708   6.389   0.276   5.770
17621SOL     OW57709   7.241   0.579   7.437
17621SOL    HW157710   7.244   0.657   7.382
17621SOL    HW257711   7.275   0.509   7.381
17622SOL     OW57712   6.954   1.133   6.137
17622SOL    HW157713   7.034   1.107   6.091
17622SOL    HW257714   6.909   1.191   6.075
17623SOL     OW57715   6.158   0.164   6.563
17623SOL    HW157716   6.163   0.197   6.653
17623SOL    HW257717   6.151   0.243   6.510
17624SOL     OW57718   6.683   1.548   6.058
17624SOL    HW157719   6.623   1.606   6.011
17624SOL    HW257720   6.626   1.487   6.105
17625SOL     OW57721   7.392   1.086   6.485
17625SOL    HW157722   7.345   1.098   6.402
17625SOL    HW257723   7.324   1.063   6.548
17626SOL     OW57724   6.766   1.537   7.119
17626SOL    HW157725   6.777   1.467   7.182
17626SOL    HW257726   6.731   1.494   7.041
17627SOL     OW57727   5.887   0.973   5.859
17627SOL    HW157728   5.975   0.974   5.821
17627SOL    HW257729   5.857   0.883   5.848
17628SOL     OW57730   7.049   0.807   6.355
17628SOL    HW157731   7.078   0.737   6.413
17628SOL    HW257732   7.129   0.837   6.312
17629SOL     OW57733   6.078   1.268   7.341
17629SOL    HW157734   6.048   1.280   7.251
17629SOL    HW257735   5.997   1.251   7.391
17630SOL     OW57736   6.662   1.796   5.724
17630SOL    HW157737   6.604   1.771   5.795
17630SOL    HW257738   6.694   1.713   5.689
17631SOL     OW57739   5.791   0.315   7.122
17631SOL    HW157740   5.741   0.338   7.044
17631SOL    HW257741   5.747   0.236   7.156
17632SOL     OW57742   7.102   1.496   5.666
17632SOL    HW157743   7.195   1.503   5.644
17632SOL    HW257744   7.079   1.406   5.643
17633SOL     OW57745   6.142   1.778   5.886
17633SOL    HW157746   6.171   1.716   5.953
17633SOL    HW257747   6.158   1.733   5.803
17634SOL     OW57748   6.976   0.111   6.061
17634SOL    HW157749   6.968   0.063   5.978
17634SOL    HW257750   7.038   0.182   6.042
17635SOL     OW57751   6.602   1.745   6.517
17635SOL    HW157752   6.672   1.691   6.481
17635SOL    HW257753   6.537   1.683   6.549
17636SOL     OW57754   5.976   0.658   6.069
17636SOL    HW157755   5.993   0.568   6.097
17636SOL    HW257756   5.880   0.668   6.076
17637SOL     OW57757   7.084   0.222   7.318
17637SOL    HW157758   7.096   0.244   7.410
17637SOL    HW257759   7.035   0.140   7.318
17638SOL     OW57760   6.266   0.149   5.722
17638SOL    HW157761   6.304   0.076   5.771
17638SOL    HW257762   6.203   0.109   5.663
17639SOL     OW57763   6.379   0.295   7.333
17639SOL    HW157764   6.467   0.259   7.326
17639SOL    HW257765   6.339   0.247   7.406
17640SOL     OW57766   6.474   1.586   6.870
17640SOL    HW157767   6.451   1.590   6.777
17640SOL    HW257768   6.533   1.511   6.876
17641SOL     OW57769   6.854   0.570   7.023
17641SOL    HW157770   6.895   0.548   7.107
17641SOL    HW257771   6.885   0.658   7.004
17642SOL     OW57772   6.505   0.500   6.477
17642SOL    HW157773   6.482   0.489   6.385
17642SOL    HW257774   6.542   0.415   6.502
17643SOL     OW57775   6.134   0.040   6.081
17643SOL    HW157776   6.057   0.019   6.133
17643SOL    HW257777   6.108   0.116   6.029
17644SOL     OW57778   7.018   1.239   5.608
17644SOL    HW157779   7.061   1.165   5.651
17644SOL    HW257780   6.931   1.242   5.648
17645SOL     OW57781   5.912   0.049   5.799
17645SOL    HW157782   5.963   0.029   5.720
17645SOL    HW257783   5.964   0.113   5.846
17646SOL     OW57784   6.525   0.236   6.056
17646SOL    HW157785   6.495   0.274   5.973
17646SOL    HW257786   6.616   0.266   6.064
17647SOL     OW57787   6.807   1.601   6.402
17647SOL    HW157788   6.837   1.618   6.312
17647SOL    HW257789   6.878   1.550   6.441
17648SOL     OW57790   6.077   1.136   6.287
17648SOL    HW157791   6.034   1.100   6.365
17648SOL    HW257792   6.008   1.136   6.221
17649SOL     OW57793   6.838   1.915   6.232
17649SOL    HW157794   6.863   1.867   6.153
17649SOL    HW257795   6.919   1.919   6.284
17650SOL     OW57796   5.709   0.718   6.885
17650SOL    HW157797   5.787   0.662   6.881
17650SOL    HW257798   5.679   0.712   6.976
17651SOL     OW57799   6.167   0.258   6.822
17651SOL    HW157800   6.193   0.242   6.913
17651SOL    HW257801   6.072   0.263   6.825
17652SOL     OW57802   6.443   0.456   6.216
17652SOL    HW157803   6.418   0.510   6.141
17652SOL    HW257804   6.465   0.371   6.178
17653SOL     OW57805   6.580   0.050   6.401
17653SOL    HW157806   6.515   0.052   6.331
17653SOL    HW257807   6.569   9.965   6.443
17654SOL     OW57808   7.066   1.174   6.420
17654SOL    HW157809   7.005   1.130   6.360
17654SOL    HW257810   7.143   1.193   6.366
17655SOL     OW57811   7.077   0.609   6.548
17655SOL    HW157812   7.013   0.539   6.561
17655SOL    HW257813   7.139   0.598   6.620
17656SOL     OW57814   7.382   0.835   5.987
17656SOL    HW157815   7.429   0.778   6.048
17656SOL    HW257816   7.359   0.778   5.914
17657SOL     OW57817   6.028   1.430   5.767
17657SOL    HW157818   5.957   1.428   5.831
17657SOL    HW257819   6.072   1.346   5.777
17658SOL     OW57820   7.286   1.242   6.260
17658SOL    HW157821   7.380   1.250   6.247
17658SOL    HW257822   7.252   1.332   6.252
17659SOL     OW57823   7.000   0.498   5.661
17659SOL    HW157824   6.946   0.515   5.738
17659SOL    HW257825   7.076   0.555   5.672
17660SOL     OW57826   6.078   0.251   5.907
17660SOL    HW157827   6.155   0.231   5.852
17660SOL    HW257828   6.039   0.328   5.866
17661SOL     OW57829   7.327   1.248   7.217
17661SOL    HW157830   7.395   1.199   7.264
17661SOL    HW257831   7.357   1.338   7.218
17662SOL     OW57832   6.652   1.369   6.922
17662SOL    HW157833   6.571   1.324   6.947
17662SOL    HW257834   6.721   1.311   6.955
17663SOL     OW57835   7.165   1.632   7.206
17663SOL    HW157836   7.182   1.715   7.160
17663SOL    HW257837   7.250   1.587   7.207
17664SOL     OW57838   7.170   1.059   6.655
17664SOL    HW157839   7.169   1.135   6.712
17664SOL    HW257840   7.121   1.086   6.578
17665SOL     OW57841   6.545   0.205   7.004
17665SOL    HW157842   6.545   0.175   6.914
17665SOL    HW257843   6.584   0.133   7.054
17666SOL     OW57844   6.554   1.091   7.320
17666SOL    HW157845   6.463   1.102   7.347
17666SOL    HW257846   6.555   1.008   7.272
17667SOL     OW57847   6.318   1.035   5.963
17667SOL    HW157848   6.303   1.002   6.052
17667SOL    HW257849   6.398   0.991   5.934
17668SOL     OW57850   6.070   0.822   6.839
17668SOL    HW157851   6.115   0.815   6.923
17668SOL    HW257852   6.025   0.738   6.829
17669SOL     OW57853   6.940   0.382   6.837
17669SOL    HW157854   6.917   0.449   6.902
17669SOL    HW257855   6.893   0.409   6.758
17670SOL     OW57856   5.719   1.728   6.869
17670SOL    HW157857   5.753   1.738   6.780
17670SOL    HW257858   5.770   1.656   6.906
17671SOL     OW57859   5.885   1.144   6.086
17671SOL    HW157860   5.877   1.228   6.041
17671SOL    HW257861   5.887   1.079   6.016
17672SOL     OW57862   6.129   0.413   6.443
17672SOL    HW157863   6.120   0.436   6.350
17672SOL    HW257864   6.174   0.489   6.481
17673SOL     OW57865   6.849   1.336   5.980
17673SOL    HW157866   6.925   1.389   6.004
17673SOL    HW257867   6.774   1.388   6.007
17674SOL     OW57868   6.874   1.452   6.752
17674SOL    HW157869   6.936   1.470   6.822
17674SOL    HW257870   6.793   1.428   6.797
17675SOL     OW57871   7.163   0.579   6.051
17675SOL    HW157872   7.098   0.647   6.031
17675SOL    HW257873   7.234   0.594   5.988
17676SOL     OW57874   5.897   1.521   6.923
17676SOL    HW157875   5.846   1.453   6.879
17676SOL    HW257876   5.973   1.534   6.868
17677SOL     OW57877   5.950   0.775   7.215
17677SOL    HW157878   6.029   0.773   7.160
17677SOL    HW257879   5.927   0.683   7.228
17678SOL     OW57880   7.240   0.808   7.285
17678SOL    HW157881   7.152   0.841   7.269
17678SOL    HW257882   7.292   0.841   7.212
17679SOL     OW57883   6.631   0.170   7.308
17679SOL    HW157884   6.692   0.224   7.258
17679SOL    HW257885   6.629   0.086   7.261
17680SOL     OW57886   6.077   0.042   7.381
17680SOL    HW157887   6.024   9.966   7.358
17680SOL    HW257888   6.015   0.115   7.384
17681SOL     OW57889   6.197   0.905   6.606
17681SOL    HW157890   6.123   0.948   6.564
17681SOL    HW257891   6.163   0.875   6.690
17682SOL     OW57892   6.896   0.849   6.605
17682SOL    HW157893   6.874   0.878   6.517
17682SOL    HW257894   6.959   0.778   6.592
17683SOL     OW57895   6.812   0.501   5.866
17683SOL    HW157896   6.809   0.433   5.934
17683SOL    HW257897   6.764   0.574   5.903
17684SOL     OW57898   5.896   0.266   6.812
17684SOL    HW157899   5.822   0.300   6.862
17684SOL    HW257900   5.860   0.247   6.725
17685SOL     OW57901   5.724   1.313   6.850
17685SOL    HW157902   5.751   1.236   6.899
17685SOL    HW257903   5.640   1.339   6.888
17686SOL     OW57904   6.264   0.620   6.577
17686SOL    HW157905   6.348   0.607   6.532
17686SOL    HW257906   6.246   0.713   6.567
17687SOL     OW57907   7.338   0.990   7.474
17687SOL    HW157908   7.301   0.917   7.423
17687SOL    HW257909   7.274   1.006   7.543
17688SOL     OW57910   5.901   0.035   6.242
17688SOL    HW157911   5.869   0.123   6.259
17688SOL    HW257912   5.918   9.999   6.329
17689SOL     OW57913   7.148   0.306   5.997
17689SOL    HW157914   7.238   0.276   6.013
17689SOL    HW257915   7.152   0.400   6.012
17690SOL     OW57916   6.571   0.754   6.541
17690SOL    HW157917   6.578   0.765   6.636
17690SOL    HW257918   6.555   0.661   6.528
17691SOL     OW57919   6.560   1.551   7.348
17691SOL    HW157920   6.516   1.592   7.274
17691SOL    HW257921   6.600   1.472   7.312
17692SOL     OW57922   7.419   1.517   7.189
17692SOL    HW157923   7.452   1.531   7.100
17692SOL    HW257924   7.496   1.528   7.245
17693SOL     OW57925   5.933   0.958   7.419
17693SOL    HW157926   6.009   0.949   7.477
17693SOL    HW257927   5.946   0.892   7.352
17694SOL     OW57928   7.121   0.204   5.678
17694SOL    HW157929   7.070   0.154   5.742
17694SOL    HW257930   7.124   0.293   5.713
17695SOL     OW57931   6.887   0.890   5.652
17695SOL    HW157932   6.793   0.872   5.650
17695SOL    HW257933   6.911   0.901   5.560
17696SOL     OW57934   5.908   0.748   6.500
17696SOL    HW157935   5.982   0.737   6.439
17696SOL    HW257936   5.901   0.663   6.544
17697SOL     OW57937   5.905   0.484   6.591
17697SOL    HW157938   5.837   0.416   6.593
17697SOL    HW257939   5.976   0.445   6.541
17698SOL     OW57940   6.668   0.470   7.256
17698SOL    HW157941   6.621   0.477   7.339
17698SOL    HW257942   6.760   0.475   7.281
17699SOL     OW57943   6.826   0.269   7.098
17699SOL    HW157944   6.887   0.320   7.152
17699SOL    HW257945   6.882   0.226   7.033
17700SOL     OW57946   5.591   1.332   5.762
17700SOL    HW157947   5.500   1.334   5.731
17700SOL    HW257948   5.600   1.246   5.803
17701SOL     OW57949   6.573   0.776   6.821
17701SOL    HW157950   6.664   0.788   6.850
17701SOL    HW257951   6.538   0.710   6.882
17702SOL     OW57952   5.607   0.537   6.702
17702SOL    HW157953   5.630   0.469   6.765
17702SOL    HW257954   5.645   0.617   6.738
17703SOL     OW57955   5.795   0.542   7.276
17703SOL    HW157956   5.792   0.461   7.226
17703SOL    HW257957   5.727   0.598   7.237
17704SOL     OW57958   6.990   0.915   7.230
17704SOL    HW157959   7.010   1.008   7.218
17704SOL    HW257960   6.970   0.884   7.142
17705SOL     OW57961   6.407   0.570   5.962
17705SOL    HW157962   6.419   0.494   5.904
17705SOL    HW257963   6.329   0.614   5.929
17706SOL     OW57964   7.241   0.580   6.776
17706SOL    HW157965   7.204   0.524   6.844
17706SOL    HW257966   7.335   0.563   6.780
17707SOL     OW57967   5.815   1.557   7.339
17707SOL    HW157968   5.768   1.583   7.418
17707SOL    HW257969   5.839   1.466   7.354
17708SOL     OW57970   6.335   0.480   6.806
17708SOL    HW157971   6.274   0.407   6.814
17708SOL    HW257972   6.300   0.533   6.734
17709SOL     OW57973   6.432   1.733   7.094
17709SOL    HW157974   6.444   1.677   7.017
17709SOL    HW257975   6.519   1.770   7.109
17710SOL     OW57976   6.000   0.472   5.764
17710SOL    HW157977   6.069   0.536   5.783
17710SOL    HW257978   5.920   0.524   5.762
17711SOL     OW57979   5.759   1.143   7.077
17711SOL    HW157980   5.737   1.102   7.162
17711SOL    HW257981   5.781   1.069   7.021
17712SOL     OW57982   6.879   1.030   6.807
17712SOL    HW157983   6.878   0.965   6.737
17712SOL    HW257984   6.921   1.107   6.768
17713SOL     OW57985   6.911   0.807   5.922
17713SOL    HW157986   6.826   0.775   5.953
17713SOL    HW257987   6.897   0.828   5.830
17714SOL     OW57988   6.904   1.833   6.774
17714SOL    HW157989   6.992   1.867   6.760
17714SOL    HW257990   6.910   1.740   6.752
17715SOL     OW57991   5.758   1.186   6.592
17715SOL    HW157992   5.737   1.229   6.675
17715SOL    HW257993   5.677   1.144   6.565
17716SOL     OW57994   6.268   1.676   7.304
17716SOL    HW157995   6.254   1.585   7.279
17716SOL    HW257996   6.323   1.712   7.235
17717SOL     OW57997   7.394   0.189   6.057
17717SOL    HW157998   7.421   0.172   5.967
17717SOL    HW257999   7.420   0.111   6.105
17718SOL     OW58000   6.957   1.577   6.101
17718SOL    HW158001   7.002   1.614   6.025
17718SOL    HW258002   6.864   1.582   6.079
17719SOL     OW58003   5.727   1.867   7.463
17719SOL    HW158004   5.681   1.784   7.477
17719SOL    HW258005   5.793   1.870   7.532
17720SOL     OW58006   6.841   0.970   6.320
17720SOL    HW158007   6.915   0.910   6.328
17720SOL    HW258008   6.862   1.025   6.245
17721SOL     OW58009   6.404   1.262   6.997
17721SOL    HW158010   6.367   1.312   7.070
17721SOL    HW258011   6.341   1.272   6.926
17722SOL     OW58012   6.202   1.615   5.668
17722SOL    HW158013   6.277   1.555   5.672
17722SOL    HW258014   6.127   1.562   5.693
17723SOL     OW58015   7.430   0.115   6.575
17723SOL    HW158016   7.522   0.087   6.569
17723SOL    HW258017   7.419   0.175   6.501
17724SOL     OW58018   5.814   0.287   6.317
17724SOL    HW158019   5.735   0.331   6.286
17724SOL    HW258020   5.797   0.267   6.409
17725SOL     OW58021   6.743   1.549   5.627
17725SOL    HW158022   6.767   1.467   5.671
17725SOL    HW258023   6.714   1.522   5.540
17726SOL     OW58024   6.404   0.972   6.993
17726SOL    HW158025   6.434   0.949   6.905
17726SOL    HW258026   6.402   1.068   6.995
17727SOL     OW58027   6.543   0.907   5.884
17727SOL    HW158028   6.568   0.892   5.793
17727SOL    HW258029   6.586   0.837   5.933
17728SOL     OW58030   6.984   1.733   5.517
17728SOL    HW158031   6.966   1.655   5.569
17728SOL    HW258032   7.068   1.715   5.475
17729SOL     OW58033   5.970   1.319   7.103
17729SOL    HW158034   5.949   1.390   7.042
17729SOL    HW258035   5.899   1.256   7.092
17730SOL     OW58036   7.166   1.288   6.807
17730SOL    HW158037   7.258   1.291   6.833
17730SOL    HW258038   7.123   1.351   6.865
17731SOL     OW58039   6.639   0.261   6.568
17731SOL    HW158040   6.628   0.205   6.491
17731SOL    HW258041   6.616   0.205   6.642
17732SOL     OW58042   6.239   1.590   6.056
17732SOL    HW158043   6.301   1.554   6.119
17732SOL    HW258044   6.159   1.540   6.070
17733SOL     OW58045   7.308   0.364   6.987
17733SOL    HW158046   7.379   0.422   6.963
17733SOL    HW258047   7.312   0.292   6.924
17734SOL     OW58048   5.837   1.391   5.963
17734SOL    HW158049   5.744   1.397   5.939
17734SOL    HW258050   5.848   1.456   6.033
17735SOL     OW58051   5.694   1.066   7.340
17735SOL    HW158052   5.616   1.015   7.361
17735SOL    HW258053   5.767   1.015   7.378
17736SOL     OW58054   6.277   0.251   7.079
17736SOL    HW158055   6.364   0.232   7.045
17736SOL    HW258056   6.290   0.263   7.173
17737SOL     OW58057   5.624   0.306   5.628
17737SOL    HW158058   5.531   0.285   5.636
17737SOL    HW258059   5.626   0.394   5.591
17738SOL     OW58060   6.963   0.823   6.970
17738SOL    HW158061   6.922   0.894   6.919
17738SOL    HW258062   7.054   0.822   6.940
17739SOL     OW58063   5.665   0.159   5.861
17739SOL    HW158064   5.656   0.213   5.783
17739SOL    HW258065   5.743   0.106   5.845
17740SOL     OW58066   6.769   1.281   5.723
17740SOL    HW158067   6.707   1.208   5.724
17740SOL    HW258068   6.795   1.291   5.814
17741SOL     OW58069   6.202   0.788   7.082
17741SOL    HW158070   6.269   0.854   7.064
17741SOL    HW258071   6.247   0.722   7.135
17742SOL     OW58072   6.351   0.574   7.261
17742SOL    HW158073   6.366   0.624   7.341
17742SOL    HW258074   6.348   0.483   7.290
17743SOL     OW58075   7.060   1.182   7.205
17743SOL    HW158076   7.043   1.199   7.297
17743SOL    HW258077   7.153   1.201   7.194
17744SOL     OW58078   5.973   1.683   7.144
17744SOL    HW158079   5.951   1.629   7.068
17744SOL    HW258080   5.928   1.640   7.217
17745SOL     OW58081   7.213   0.853   6.852
17745SOL    HW158082   7.233   0.768   6.812
17745SOL    HW258083   7.206   0.913   6.778
17746SOL     OW58084   6.784   0.318   6.075
17746SOL    HW158085   6.850   0.249   6.076
17746SOL    HW258086   6.806   0.373   6.150
17747SOL     OW58087   6.104   0.743   6.302
17747SOL    HW158088   6.170   0.806   6.272
17747SOL    HW258089   6.059   0.714   6.223
17748SOL     OW58090   7.318   0.369   7.269
17748SOL    HW158091   7.329   0.378   7.175
17748SOL    HW258092   7.243   0.309   7.279
17749SOL     OW58093   7.385   0.915   7.067
17749SOL    HW158094   7.415   1.004   7.051
17749SOL    HW258095   7.327   0.895   6.993
17750SOL     OW58096   6.385   1.408   5.678
17750SOL    HW158097   6.398   1.373   5.766
17750SOL    HW258098   6.474   1.423   5.644
17751SOL     OW58099   6.249   1.744   6.483
17751SOL    HW158100   6.288   1.729   6.397
17751SOL    HW258101   6.305   1.696   6.544
17752SOL     OW58102   6.424   0.970   6.466
17752SOL    HW158103   6.479   0.895   6.487
17752SOL    HW258104   6.346   0.959   6.521
17753SOL     OW58105   7.514   1.554   6.391
17753SOL    HW158106   7.442   1.537   6.331
17753SOL    HW258107   7.521   1.474   6.443
17754SOL     OW58108   5.820   1.297   7.426
17754SOL    HW158109   5.771   1.218   7.402
17754SOL    HW258110   5.814   1.299   7.522
17755SOL     OW58111   5.651   1.177   6.239
17755SOL    HW158112   5.663   1.125   6.318
17755SOL    HW258113   5.731   1.164   6.188
17756SOL     OW58114   6.300   1.402   7.234
17756SOL    HW158115   6.216   1.358   7.248
17756SOL    HW258116   6.347   1.391   7.317
17757SOL     OW58117   7.325   0.131   6.827
17757SOL    HW158118   7.398   0.098   6.881
17757SOL    HW258119   7.357   0.124   6.737
17758SOL     OW58120   6.016   0.403   6.163
17758SOL    HW158121   6.033   0.340   6.093
17758SOL    HW258122   5.949   0.362   6.217
17759SOL     OW58123   7.310   1.521   6.672
17759SOL    HW158124   7.224   1.482   6.658
17759SOL    HW258125   7.358   1.456   6.723
17760SOL     OW58126   5.945   0.579   6.854
17760SOL    HW158127   5.978   0.517   6.919
17760SOL    HW258128   5.933   0.526   6.775
17761SOL     OW58129   7.091   0.227   6.660
17761SOL    HW158130   7.169   0.186   6.697
17761SOL    HW258131   7.048   0.269   6.735
17762SOL     OW58132   6.554   0.081   6.758
17762SOL    HW158133   6.470   0.055   6.720
17762SOL    HW258134   6.599   9.998   6.774
17763SOL     OW58135   6.420   1.296   5.922
17763SOL    HW158136   6.383   1.209   5.936
17763SOL    HW258137   6.459   1.319   6.006
17764SOL     OW58138   6.126   1.578   6.783
17764SOL    HW158139   6.162   1.651   6.833
17764SOL    HW258140   6.203   1.532   6.749
17765SOL     OW58141   6.987   9.991   5.810
17765SOL    HW158142   7.042   9.955   5.740
17765SOL    HW258143   6.909   9.936   5.810
17766SOL     OW58144   6.831   0.480   6.289
17766SOL    HW158145   6.791   0.566   6.287
17766SOL    HW258146   6.857   0.467   6.380
17767SOL     OW58147   7.087   0.196   6.378
17767SOL    HW158148   7.101   0.199   6.472
17767SOL    HW258149   7.117   0.281   6.346
17768SOL     OW58150   5.627   1.077   5.878
17768SOL    HW158151   5.721   1.064   5.863
17768SOL    HW258152   5.593   0.989   5.894
17769SOL     OW58153   6.485   1.712   5.937
17769SOL    HW158154   6.412   1.653   5.953
17769SOL    HW258155   6.467   1.789   5.991
17770SOL     OW58156   5.817   0.603   7.547
17770SOL    HW158157   5.728   0.604   7.582
17770SOL    HW258158   5.806   0.583   7.454
17771SOL     OW58159   5.807   0.276   8.501
17771SOL    HW158160   5.848   0.248   8.583
17771SOL    HW258161   5.830   0.209   8.438
17772SOL     OW58162   5.584   0.440   8.113
17772SOL    HW158163   5.502   0.457   8.159
17772SOL    HW258164   5.567   0.362   8.061
17773SOL     OW58165   6.187   1.347   8.676
17773SOL    HW158166   6.213   1.350   8.584
17773SOL    HW258167   6.187   1.439   8.704
17774SOL     OW58168   6.959   1.532   8.169
17774SOL    HW158169   6.980   1.447   8.208
17774SOL    HW258170   6.987   1.523   8.077
17775SOL     OW58171   6.696   0.744   8.119
17775SOL    HW158172   6.759   0.815   8.126
17775SOL    HW258173   6.665   0.731   8.209
17776SOL     OW58174   7.396   0.596   7.664
17776SOL    HW158175   7.343   0.600   7.584
17776SOL    HW258176   7.365   0.517   7.710
17777SOL     OW58177   6.436   0.760   9.266
17777SOL    HW158178   6.407   0.839   9.312
17777SOL    HW258179   6.482   0.792   9.189
17778SOL     OW58180   6.289   0.949   8.081
17778SOL    HW158181   6.354   0.949   8.151
17778SOL    HW258182   6.215   0.997   8.116
17779SOL     OW58183   6.321   1.089   9.319
17779SOL    HW158184   6.326   1.184   9.311
17779SOL    HW258185   6.271   1.073   9.399
17780SOL     OW58186   5.857   1.524   8.516
17780SOL    HW158187   5.810   1.447   8.484
17780SOL    HW258188   5.932   1.533   8.457
17781SOL     OW58189   6.035   0.383   8.999
17781SOL    HW158190   6.112   0.328   8.982
17781SOL    HW258191   5.960   0.323   8.988
17782SOL     OW58192   7.155   0.520   8.272
17782SOL    HW158193   7.092   0.449   8.287
17782SOL    HW258194   7.237   0.485   8.306
17783SOL     OW58195   5.791   1.719   7.887
17783SOL    HW158196   5.836   1.777   7.949
17783SOL    HW258197   5.824   1.632   7.906
17784SOL     OW58198   6.644   1.371   9.175
17784SOL    HW158199   6.732   1.391   9.206
17784SOL    HW258200   6.644   1.276   9.164
17785SOL     OW58201   5.903   1.474   7.936
17785SOL    HW158202   5.998   1.469   7.929
17785SOL    HW258203   5.883   1.424   8.016
17786SOL     OW58204   5.854   1.092   8.340
17786SOL    HW158205   5.863   1.001   8.368
17786SOL    HW258206   5.828   1.139   8.419
17787SOL     OW58207   6.205   1.858   8.881
17787SOL    HW158208   6.213   1.800   8.956
17787SOL    HW258209   6.223   1.946   8.915
17788SOL     OW58210   6.146   0.982   7.613
17788SOL    HW158211   6.202   1.015   7.543
17788SOL    HW258212   6.187   1.013   7.694
17789SOL     OW58213   7.074   0.062   8.769
17789SOL    HW158214   7.161   0.103   8.766
17789SOL    HW258215   7.058   0.045   8.861
17790SOL     OW58216   5.707   0.676   8.025
17790SOL    HW158217   5.667   0.594   8.054
17790SOL    HW258218   5.697   0.735   8.100
17791SOL     OW58219   7.407   1.762   7.754
17791SOL    HW158220   7.479   1.745   7.813
17791SOL    HW258221   7.423   1.851   7.722
17792SOL     OW58222   5.632   1.618   7.539
17792SOL    HW158223   5.611   1.525   7.548
17792SOL    HW258224   5.598   1.658   7.619
17793SOL     OW58225   7.302   0.920   8.097
17793SOL    HW158226   7.351   0.866   8.034
17793SOL    HW258227   7.274   0.997   8.047
17794SOL     OW58228   7.256   1.132   7.905
17794SOL    HW158229   7.338   1.109   7.861
17794SOL    HW258230   7.281   1.203   7.965
17795SOL     OW58231   5.758   0.726   9.021
17795SOL    HW158232   5.854   0.725   9.028
17795SOL    HW258233   5.733   0.813   9.051
17796SOL     OW58234   6.873   1.251   8.916
17796SOL    HW158235   6.891   1.166   8.876
17796SOL    HW258236   6.921   1.249   8.999
17797SOL     OW58237   6.382   0.007   7.953
17797SOL    HW158238   6.425   0.092   7.942
17797SOL    HW258239   6.289   0.028   7.962
17798SOL     OW58240   5.753   0.934   8.681
17798SOL    HW158241   5.840   0.895   8.688
17798SOL    HW258242   5.700   0.866   8.638
17799SOL     OW58243   7.137   1.046   7.664
17799SOL    HW158244   7.073   0.980   7.689
17799SOL    HW258245   7.173   1.077   7.747
17800SOL     OW58246   6.718   1.775   9.031
17800SOL    HW158247   6.725   1.752   9.124
17800SOL    HW258248   6.783   1.720   8.988
17801SOL     OW58249   5.926   0.203   9.251
17801SOL    HW158250   5.972   0.285   9.239
17801SOL    HW258251   5.837   0.228   9.276
17802SOL     OW58252   7.199   1.842   8.049
17802SOL    HW158253   7.215   1.753   8.019
17802SOL    HW258254   7.193   1.835   8.145
17803SOL     OW58255   6.200   0.697   7.765
17803SOL    HW158256   6.238   0.777   7.729
17803SOL    HW258257   6.122   0.727   7.812
17804SOL     OW58258   7.134   1.718   7.710
17804SOL    HW158259   7.228   1.726   7.727
17804SOL    HW258260   7.129   1.674   7.625
17805SOL     OW58261   6.324   0.642   8.855
17805SOL    HW158262   6.325   0.604   8.942
17805SOL    HW258263   6.280   0.577   8.801
17806SOL     OW58264   7.012   0.440   9.112
17806SOL    HW158265   7.079   0.481   9.166
17806SOL    HW258266   7.043   0.350   9.099
17807SOL     OW58267   6.561   0.850   9.039
17807SOL    HW158268   6.616   0.784   8.996
17807SOL    HW258269   6.513   0.892   8.967
17808SOL     OW58270   6.585   0.687   7.876
17808SOL    HW158271   6.625   0.720   7.957
17808SOL    HW258272   6.529   0.615   7.905
17809SOL     OW58273   5.672   0.861   8.231
17809SOL    HW158274   5.752   0.836   8.278
17809SOL    HW258275   5.640   0.937   8.279
17810SOL     OW58276   5.710   1.878   9.027
17810SOL    HW158277   5.718   1.873   9.122
17810SOL    HW258278   5.697   1.787   8.999
17811SOL     OW58279   6.375   0.385   7.667
17811SOL    HW158280   6.447   0.421   7.616
17811SOL    HW258281   6.352   0.303   7.624
17812SOL     OW58282   7.232   0.557   9.233
17812SOL    HW158283   7.228   0.642   9.189
17812SOL    HW258284   7.290   0.505   9.177
17813SOL     OW58285   6.994   1.164   8.011
17813SOL    HW158286   7.077   1.157   7.964
17813SOL    HW258287   6.937   1.213   7.951
17814SOL     OW58288   6.116   0.243   8.387
17814SOL    HW158289   6.152   0.237   8.475
17814SOL    HW258290   6.138   0.331   8.357
17815SOL     OW58291   6.547   1.486   7.892
17815SOL    HW158292   6.552   1.560   7.832
17815SOL    HW258293   6.487   1.425   7.849
17816SOL     OW58294   5.947   1.835   8.309
17816SOL    HW158295   5.996   1.758   8.338
17816SOL    HW258296   5.999   1.909   8.342
17817SOL     OW58297   7.347   0.941   8.379
17817SOL    HW158298   7.329   0.950   8.285
17817SOL    HW258299   7.299   1.013   8.420
17818SOL     OW58300   6.873   1.569   8.939
17818SOL    HW158301   6.964   1.582   8.913
17818SOL    HW258302   6.873   1.484   8.984
17819SOL     OW58303   5.887   0.957   7.745
17819SOL    HW158304   5.959   0.963   7.682
17819SOL    HW258305   5.885   0.864   7.769
17820SOL     OW58306   7.082   0.752   8.147
17820SOL    HW158307   7.096   0.670   8.194
17820SOL    HW258308   7.164   0.799   8.155
17821SOL     OW58309   6.067   1.252   9.192
17821SOL    HW158310   6.063   1.163   9.158
17821SOL    HW258311   6.071   1.241   9.287
17822SOL     OW58312   6.705   1.811   7.581
17822SOL    HW158313   6.634   1.787   7.640
17822SOL    HW258314   6.742   1.728   7.552
17823SOL     OW58315   5.783   0.266   8.961
17823SOL    HW158316   5.734   0.346   8.943
17823SOL    HW258317   5.750   0.236   9.046
17824SOL     OW58318   7.234   1.390   7.537
17824SOL    HW158319   7.190   1.472   7.515
17824SOL    HW258320   7.173   1.322   7.508
17825SOL     OW58321   6.153   1.776   7.816
17825SOL    HW158322   6.171   1.713   7.886
17825SOL    HW258323   6.181   1.732   7.736
17826SOL     OW58324   6.954   0.117   7.909
17826SOL    HW158325   6.875   0.063   7.901
17826SOL    HW258326   6.973   0.116   8.003
17827SOL     OW58327   5.842   1.802   8.629
17827SOL    HW158328   5.882   1.736   8.685
17827SOL    HW258329   5.815   1.753   8.551
17828SOL     OW58330   5.956   0.698   7.907
17828SOL    HW158331   5.977   0.604   7.907
17828SOL    HW258332   5.869   0.703   7.944
17829SOL     OW58333   7.117   0.181   9.094
17829SOL    HW158334   7.190   0.139   9.140
17829SOL    HW258335   7.049   0.113   9.090
17830SOL     OW58336   6.275   0.143   7.545
17830SOL    HW158337   6.313   0.068   7.591
17830SOL    HW258338   6.208   0.105   7.488
17831SOL     OW58339   6.383   0.309   9.202
17831SOL    HW158340   6.477   0.292   9.207
17831SOL    HW258341   6.348   0.279   9.286
17832SOL     OW58342   6.473   1.540   8.657
17832SOL    HW158343   6.461   1.496   8.574
17832SOL    HW258344   6.530   1.482   8.707
17833SOL     OW58345   6.992   0.637   8.899
17833SOL    HW158346   7.014   0.571   8.964
17833SOL    HW258347   7.076   0.673   8.871
17834SOL     OW58348   6.553   0.440   8.234
17834SOL    HW158349   6.649   0.438   8.234
17834SOL    HW258350   6.529   0.443   8.327
17835SOL     OW58351   6.118   0.075   7.945
17835SOL    HW158352   6.033   0.060   7.986
17835SOL    HW258353   6.099   0.133   7.871
17836SOL     OW58354   7.027   1.213   7.476
17836SOL    HW158355   7.065   1.148   7.535
17836SOL    HW258356   6.947   1.242   7.521
17837SOL     OW58357   5.834   0.069   7.627
17837SOL    HW158358   5.856   0.135   7.562
17837SOL    HW258359   5.918   0.044   7.666
17838SOL     OW58360   6.556   0.224   7.861
17838SOL    HW158361   6.544   0.217   7.766
17838SOL    HW258362   6.640   0.267   7.872
17839SOL     OW58363   6.717   0.647   8.912
17839SOL    HW158364   6.696   0.627   8.821
17839SOL    HW258365   6.813   0.654   8.913
17840SOL     OW58366   6.738   1.679   8.238
17840SOL    HW158367   6.803   1.614   8.212
17840SOL    HW258368   6.759   1.699   8.329
17841SOL     OW58369   6.064   1.080   8.157
17841SOL    HW158370   6.005   1.087   8.232
17841SOL    HW258371   6.010   1.105   8.082
17842SOL     OW58372   6.843   1.789   7.994
17842SOL    HW158373   6.881   1.875   8.015
17842SOL    HW258374   6.814   1.755   8.079
17843SOL     OW58375   6.575   0.516   7.515
17843SOL    HW158376   6.533   0.601   7.505
17843SOL    HW258377   6.647   0.531   7.575
17844SOL     OW58378   5.692   0.519   8.847
17844SOL    HW158379   5.784   0.521   8.820
17844SOL    HW258380   5.683   0.593   8.908
17845SOL     OW58381   6.176   0.211   8.661
17845SOL    HW158382   6.225   0.185   8.738
17845SOL    HW258383   6.084   0.195   8.684
17846SOL     OW58384   6.442   0.459   7.978
17846SOL    HW158385   6.466   0.467   8.071
17846SOL    HW258386   6.484   0.377   7.950
17847SOL     OW58387   6.686   9.950   8.174
17847SOL    HW158388   6.671   0.039   8.206
17847SOL    HW258389   6.634   9.895   8.232
17848SOL     OW58390   6.979   1.272   8.271
17848SOL    HW158391   6.968   1.204   8.338
17848SOL    HW258392   6.996   1.223   8.190
17849SOL     OW58393   7.414   0.763   7.885
17849SOL    HW158394   7.484   0.720   7.933
17849SOL    HW258395   7.409   0.716   7.802
17850SOL     OW58396   6.073   1.465   7.563
17850SOL    HW158397   6.006   1.424   7.618
17850SOL    HW258398   6.090   1.401   7.494
17851SOL     OW58399   7.347   1.302   8.096
17851SOL    HW158400   7.429   1.256   8.110
17851SOL    HW258401   7.356   1.383   8.146
17852SOL     OW58402   6.963   0.593   7.500
17852SOL    HW158403   6.918   0.569   7.581
17852SOL    HW258404   7.055   0.580   7.519
17853SOL     OW58405   6.098   0.251   7.731
17853SOL    HW158406   6.160   0.208   7.671
17853SOL    HW258407   6.068   0.328   7.683
17854SOL     OW58408   7.298   1.241   9.084
17854SOL    HW158409   7.367   1.185   9.119
17854SOL    HW258410   7.340   1.326   9.071
17855SOL     OW58411   6.655   1.343   8.769
17855SOL    HW158412   6.573   1.319   8.812
17855SOL    HW258413   6.723   1.314   8.829
17856SOL     OW58414   7.206   1.657   9.055
17856SOL    HW158415   7.174   1.647   8.965
17856SOL    HW258416   7.273   1.590   9.065
17857SOL     OW58417   6.675   1.234   8.510
17857SOL    HW158418   6.668   1.263   8.601
17857SOL    HW258419   6.608   1.283   8.464
17858SOL     OW58420   7.188   1.129   8.540
17858SOL    HW158421   7.210   1.082   8.620
17858SOL    HW258422   7.097   1.104   8.521
17859SOL     OW58423   6.454   0.048   8.873
17859SOL    HW158424   6.511   0.010   8.805
17859SOL    HW258425   6.479   0.003   8.953
17860SOL     OW58426   6.566   1.097   9.179
17860SOL    HW158427   6.476   1.092   9.212
17860SOL    HW258428   6.574   1.020   9.122
17861SOL     OW58429   6.311   1.057   7.823
17861SOL    HW158430   6.304   1.027   7.914
17861SOL    HW258431   6.383   1.006   7.787
17862SOL     OW58432   5.998   0.816   8.727
17862SOL    HW158433   6.056   0.844   8.798
17862SOL    HW258434   5.978   0.724   8.747
17863SOL     OW58435   5.666   1.573   8.820
17863SOL    HW158436   5.632   1.622   8.745
17863SOL    HW258437   5.761   1.578   8.810
17864SOL     OW58438   5.915   1.154   7.936
17864SOL    HW158439   5.980   1.208   7.891
17864SOL    HW258440   5.899   1.081   7.877
17865SOL     OW58441   6.146   0.517   8.320
17865SOL    HW158442   6.154   0.568   8.239
17865SOL    HW258443   6.222   0.544   8.372
17866SOL     OW58444   6.828   1.346   7.858
17866SOL    HW158445   6.882   1.424   7.868
17866SOL    HW258446   6.749   1.363   7.909
17867SOL     OW58447   6.865   1.505   8.656
17867SOL    HW158448   6.891   1.543   8.740
17867SOL    HW258449   6.788   1.452   8.676
17868SOL     OW58450   7.124   0.675   7.881
17868SOL    HW158451   7.087   0.683   7.969
17868SOL    HW258452   7.210   0.715   7.888
17869SOL     OW58453   5.940   1.590   8.767
17869SOL    HW158454   5.925   1.544   8.685
17869SOL    HW258455   6.035   1.591   8.778
17870SOL     OW58456   6.035   0.690   9.072
17870SOL    HW158457   6.077   0.767   9.034
17870SOL    HW258458   6.106   0.629   9.089
17871SOL     OW58459   7.203   0.790   9.097
17871SOL    HW158460   7.123   0.842   9.091
17871SOL    HW258461   7.228   0.773   9.006
17872SOL     OW58462   6.144   0.013   9.212
17872SOL    HW158463   6.163   9.993   9.121
17872SOL    HW258464   6.066   0.068   9.209
17873SOL     OW58465   6.127   0.892   8.493
17873SOL    HW158466   6.180   0.969   8.511
17873SOL    HW258467   6.092   0.866   8.579
17874SOL     OW58468   6.855   0.821   8.561
17874SOL    HW158469   6.857   0.786   8.472
17874SOL    HW258470   6.817   0.751   8.614
17875SOL     OW58471   6.772   0.566   7.706
17875SOL    HW158472   6.788   0.485   7.753
17875SOL    HW258473   6.720   0.619   7.766
17876SOL     OW58474   5.910   0.170   8.734
17876SOL    HW158475   5.865   0.197   8.813
17876SOL    HW258476   5.917   0.075   8.741
17877SOL     OW58477   5.589   1.314   8.735
17877SOL    HW158478   5.628   1.247   8.792
17877SOL    HW258479   5.614   1.397   8.775
17878SOL     OW58480   6.361   0.582   8.485
17878SOL    HW158481   6.444   0.535   8.495
17878SOL    HW258482   6.382   0.672   8.509
17879SOL     OW58483   7.332   0.932   9.299
17879SOL    HW158484   7.294   0.878   9.230
17879SOL    HW258485   7.270   0.926   9.372
17880SOL     OW58486   5.861   0.084   8.067
17880SOL    HW158487   5.848   0.179   8.065
17880SOL    HW258488   5.874   0.063   8.159
17881SOL     OW58489   7.202   0.425   7.792
17881SOL    HW158490   7.225   0.381   7.874
17881SOL    HW258491   7.162   0.508   7.819
17882SOL     OW58492   6.619   0.729   8.388
17882SOL    HW158493   6.626   0.760   8.479
17882SOL    HW258494   6.624   0.634   8.395
17883SOL     OW58495   6.532   1.564   9.006
17883SOL    HW158496   6.596   1.632   9.026
17883SOL    HW258497   6.563   1.487   9.055
17884SOL     OW58498   7.430   1.486   9.043
17884SOL    HW158499   7.446   1.527   8.959
17884SOL    HW258500   7.509   1.503   9.094
17885SOL     OW58501   5.957   0.993   9.290
17885SOL    HW158502   5.989   1.056   9.355
17885SOL    HW258503   6.003   0.912   9.311
17886SOL     OW58504   7.093   0.276   7.583
17886SOL    HW158505   7.034   0.225   7.638
17886SOL    HW258506   7.144   0.328   7.645
17887SOL     OW58507   6.850   0.839   7.456
17887SOL    HW158508   6.883   0.750   7.468
17887SOL    HW258509   6.897   0.873   7.380
17888SOL     OW58510   6.717   1.339   8.189
17888SOL    HW158511   6.690   1.250   8.169
17888SOL    HW258512   6.800   1.330   8.235
17889SOL     OW58513   5.891   0.809   8.385
17889SOL    HW158514   5.981   0.833   8.408
17889SOL    HW258515   5.886   0.716   8.404
17890SOL     OW58516   5.887   0.532   8.431
17890SOL    HW158517   5.865   0.443   8.458
17890SOL    HW258518   5.977   0.526   8.399
17891SOL     OW58519   6.742   0.488   9.154
17891SOL    HW158520   6.714   0.537   9.076
17891SOL    HW258521   6.836   0.474   9.140
17892SOL     OW58522   5.562   1.356   7.579
17892SOL    HW158523   5.542   1.304   7.502
17892SOL    HW258524   5.591   1.293   7.645
17893SOL     OW58525   5.679   1.786   8.370
17893SOL    HW158526   5.655   1.699   8.339
17893SOL    HW258527   5.770   1.798   8.342
17894SOL     OW58528   6.103   1.629   8.402
17894SOL    HW158529   6.173   1.691   8.421
17894SOL    HW258530   6.144   1.543   8.411
17895SOL     OW58531   6.487   0.776   8.669
17895SOL    HW158532   6.563   0.718   8.666
17895SOL    HW258533   6.431   0.738   8.738
17896SOL     OW58534   5.633   0.572   8.573
17896SOL    HW158535   5.709   0.562   8.516
17896SOL    HW258536   5.666   0.555   8.661
17897SOL     OW58537   5.823   0.525   9.201
17897SOL    HW158538   5.911   0.541   9.166
17897SOL    HW258539   5.767   0.587   9.153
17898SOL     OW58540   6.982   0.956   9.090
17898SOL    HW158541   6.997   1.048   9.113
17898SOL    HW258542   6.952   0.959   8.999
17899SOL     OW58543   5.872   1.577   9.263
17899SOL    HW158544   5.789   1.588   9.310
17899SOL    HW258545   5.933   1.547   9.330
17900SOL     OW58546   6.191   0.484   8.670
17900SOL    HW158547   6.197   0.388   8.663
17900SOL    HW258548   6.247   0.517   8.600
17901SOL     OW58549   6.546   1.785   8.790
17901SOL    HW158550   6.518   1.696   8.768
17901SOL    HW258551   6.597   1.775   8.870
17902SOL     OW58552   6.054   0.499   7.631
17902SOL    HW158553   6.103   0.581   7.640
17902SOL    HW258554   5.967   0.526   7.602
17903SOL     OW58555   5.722   1.118   8.880
17903SOL    HW158556   5.721   1.070   8.963
17903SOL    HW258557   5.729   1.050   8.813
17904SOL     OW58558   6.917   1.091   8.484
17904SOL    HW158559   6.896   1.001   8.509
17904SOL    HW258560   6.834   1.138   8.492
17905SOL     OW58561   6.961   0.855   7.739
17905SOL    HW158562   6.999   0.781   7.787
17905SOL    HW258563   6.901   0.814   7.676
17906SOL     OW58564   6.829   1.738   8.491
17906SOL    HW158565   6.918   1.772   8.480
17906SOL    HW258566   6.839   1.661   8.547
17907SOL     OW58567   5.670   1.307   8.466
17907SOL    HW158568   5.638   1.307   8.557
17907SOL    HW258569   5.629   1.230   8.426
17908SOL     OW58570   6.221   1.698   9.113
17908SOL    HW158571   6.235   1.689   9.207
17908SOL    HW258572   6.246   1.613   9.077
17909SOL     OW58573   6.974   1.575   7.888
17909SOL    HW158574   7.036   1.613   7.825
17909SOL    HW258575   6.923   1.650   7.919
17910SOL     OW58576   5.722   1.869   9.309
17910SOL    HW158577   5.679   1.785   9.324
17910SOL    HW258578   5.788   1.875   9.378
17911SOL     OW58579   6.883   0.941   8.130
17911SOL    HW158580   6.952   0.875   8.139
17911SOL    HW258581   6.925   1.013   8.084
17912SOL     OW58582   6.392   1.285   8.856
17912SOL    HW158583   6.364   1.335   8.932
17912SOL    HW258584   6.324   1.299   8.791
17913SOL     OW58585   6.248   1.676   7.578
17913SOL    HW158586   6.268   1.678   7.484
17913SOL    HW258587   6.193   1.599   7.589
17914SOL     OW58588   7.430   0.189   8.318
17914SOL    HW158589   7.492   0.171   8.389
17914SOL    HW258590   7.405   0.280   8.331
17915SOL     OW58591   5.852   0.359   8.129
17915SOL    HW158592   5.762   0.392   8.126
17915SOL    HW258593   5.875   0.361   8.222
17916SOL     OW58594   6.795   1.565   7.494
17916SOL    HW158595   6.797   1.479   7.535
17916SOL    HW258596   6.717   1.564   7.438
17917SOL     OW58597   6.422   1.005   8.855
17917SOL    HW158598   6.455   0.980   8.769
17917SOL    HW258599   6.421   1.101   8.853
17918SOL     OW58600   6.500   0.892   7.702
17918SOL    HW158601   6.576   0.944   7.675
17918SOL    HW258602   6.535   0.828   7.763
17919SOL     OW58603   7.073   1.610   7.465
17919SOL    HW158604   6.978   1.596   7.464
17919SOL    HW258605   7.097   1.617   7.373
17920SOL     OW58606   5.920   1.304   8.924
17920SOL    HW158607   5.986   1.303   8.855
17920SOL    HW258608   5.855   1.240   8.895
17921SOL     OW58609   6.647   1.087   8.132
17921SOL    HW158610   6.581   1.037   8.180
17921SOL    HW258611   6.724   1.030   8.131
17922SOL     OW58612   5.855   1.333   7.701
17922SOL    HW158613   5.795   1.263   7.723
17922SOL    HW258614   5.861   1.386   7.780
17923SOL     OW58615   5.724   0.982   9.125
17923SOL    HW158616   5.647   0.994   9.181
17923SOL    HW258617   5.798   0.994   9.184
17924SOL     OW58618   6.258   0.218   8.963
17924SOL    HW158619   6.324   0.159   8.927
17924SOL    HW258620   6.298   0.253   9.043
17925SOL     OW58621   5.630   0.302   7.457
17925SOL    HW158622   5.558   0.243   7.480
17925SOL    HW258623   5.591   0.364   7.395
17926SOL     OW58624   6.950   1.000   8.813
17926SOL    HW158625   6.920   0.933   8.752
17926SOL    HW258626   7.045   1.001   8.803
17927SOL     OW58627   5.585   0.146   7.729
17927SOL    HW158628   5.525   0.145   7.654
17927SOL    HW258629   5.669   0.118   7.692
17928SOL     OW58630   6.786   1.297   7.589
17928SOL    HW158631   6.745   1.210   7.588
17928SOL    HW258632   6.801   1.314   7.682
17929SOL     OW58633   6.187   0.868   8.919
17929SOL    HW158634   6.251   0.939   8.916
17929SOL    HW258635   6.238   0.789   8.897
17930SOL     OW58636   6.291   0.566   9.121
17930SOL    HW158637   6.337   0.627   9.179
17930SOL    HW258638   6.319   0.480   9.149
17931SOL     OW58639   7.026   1.223   9.147
17931SOL    HW158640   7.009   1.260   9.234
17931SOL    HW258641   7.120   1.235   9.134
17932SOL     OW58642   6.804   0.342   7.863
17932SOL    HW158643   6.869   0.272   7.871
17932SOL    HW258644   6.824   0.403   7.934
17933SOL     OW58645   6.174   0.688   8.095
17933SOL    HW158646   6.226   0.769   8.097
17933SOL    HW258647   6.093   0.712   8.051
17934SOL     OW58648   7.370   0.372   9.080
17934SOL    HW158649   7.436   0.406   9.020
17934SOL    HW258650   7.314   0.316   9.026
17935SOL     OW58651   7.225   1.005   8.787
17935SOL    HW158652   7.290   1.044   8.846
17935SOL    HW258653   7.233   0.911   8.802
17936SOL     OW58654   6.393   1.376   7.496
17936SOL    HW158655   6.379   1.372   7.591
17936SOL    HW258656   6.457   1.447   7.484
17937SOL     OW58657   6.319   1.806   8.422
17937SOL    HW158658   6.324   1.902   8.412
17937SOL    HW258659   6.400   1.782   8.466
17938SOL     OW58660   6.472   0.946   8.293
17938SOL    HW158661   6.514   0.864   8.320
17938SOL    HW258662   6.465   0.997   8.373
17939SOL     OW58663   6.691   1.040   7.553
17939SOL    HW158664   6.643   1.057   7.472
17939SOL    HW258665   6.753   0.971   7.530
17940SOL     OW58666   7.439   1.509   8.261
17940SOL    HW158667   7.403   1.584   8.308
17940SOL    HW258668   7.475   1.452   8.329
17941SOL     OW58669   5.814   1.274   9.338
17941SOL    HW158670   5.728   1.256   9.378
17941SOL    HW258671   5.877   1.241   9.402
17942SOL     OW58672   5.712   1.214   8.119
17942SOL    HW158673   5.746   1.173   8.198
17942SOL    HW258674   5.773   1.189   8.050
17943SOL     OW58675   6.263   1.411   9.082
17943SOL    HW158676   6.186   1.359   9.106
17943SOL    HW258677   6.320   1.406   9.159
17944SOL     OW58678   7.324   0.163   8.719
17944SOL    HW158679   7.407   0.114   8.720
17944SOL    HW258680   7.345   0.242   8.669
17945SOL     OW58681   6.042   0.430   7.939
17945SOL    HW158682   6.025   0.357   7.879
17945SOL    HW258683   5.988   0.411   8.015
17946SOL     OW58684   5.957   0.548   8.791
17946SOL    HW158685   5.985   0.512   8.875
17946SOL    HW258686   6.028   0.527   8.731
17947SOL     OW58687   6.346   1.334   7.765
17947SOL    HW158688   6.274   1.376   7.812
17947SOL    HW258689   6.337   1.241   7.786
17948SOL     OW58690   6.217   1.615   8.741
17948SOL    HW158691   6.223   1.701   8.783
17948SOL    HW258692   6.306   1.594   8.714
17949SOL     OW58693   6.909   0.027   7.565
17949SOL    HW158694   7.002   0.005   7.566
17949SOL    HW258695   6.866   9.954   7.608
17950SOL     OW58696   6.851   0.521   8.055
17950SOL    HW158697   6.804   0.603   8.071
17950SOL    HW258698   6.859   0.481   8.142
17951SOL     OW58699   5.660   1.125   7.700
17951SOL    HW158700   5.722   1.053   7.712
17951SOL    HW258701   5.578   1.083   7.675
17952SOL     OW58702   6.491   1.720   7.735
17952SOL    HW158703   6.408   1.697   7.694
17952SOL    HW258704   6.466   1.757   7.820
17953SOL     OW58705   5.806   0.596   9.474
17953SOL    HW158706   5.713   0.602   9.497
17953SOL    HW258707   5.806   0.580   9.379
17954SOL     OW58708   7.318   0.550   9.491
17954SOL    HW158709   7.284   0.567   9.403
17954SOL    HW258710   7.386   0.484   9.478
17955SOL     OW58711   5.759   1.753   9.773
17955SOL    HW158712   5.820   1.809   9.820
17955SOL    HW258713   5.778   1.665   9.806
17956SOL     OW58714   5.795   1.497   9.880
17956SOL    HW158715   5.758   1.528   9.963
17956SOL    HW258716   5.798   1.402   9.889
17957SOL     OW58717   5.710   0.701   9.882
17957SOL    HW158718   5.623   0.663   9.871
17957SOL    HW258719   5.699   0.770   9.947
17958SOL     OW58720   7.428   1.732   9.641
17958SOL    HW158721   7.493   1.715   9.710
17958SOL    HW258722   7.438   1.825   9.622
17959SOL     OW58723   5.630   1.627   9.406
17959SOL    HW158724   5.609   1.538   9.433
17959SOL    HW258725   5.599   1.682   9.478
17960SOL     OW58726   7.180   0.907   9.943
17960SOL    HW158727   7.268   0.881   9.967
17960SOL    HW258728   7.192   0.975   9.876
17961SOL     OW58729   7.237   1.079   9.729
17961SOL    HW158730   7.326   1.080   9.695
17961SOL    HW258731   7.210   1.171   9.729
17962SOL     OW58732   6.372   9.997   9.818
17962SOL    HW158733   6.424   0.077   9.804
17962SOL    HW258734   6.284   0.028   9.838
17963SOL     OW58735   7.136   0.915   9.518
17963SOL    HW158736   7.075   0.862   9.570
17963SOL    HW258737   7.171   0.979   9.580
17964SOL     OW58738   6.182   0.781   9.634
17964SOL    HW158739   6.193   0.873   9.610
17964SOL    HW258740   6.111   0.781   9.698
17965SOL     OW58741   7.105   1.745   9.656
17965SOL    HW158742   7.193   1.709   9.653
17965SOL    HW258743   7.048   1.669   9.664
17966SOL     OW58744   6.639   0.732   9.752
17966SOL    HW158745   6.667   0.688   9.832
17966SOL    HW258746   6.557   0.689   9.728
17967SOL     OW58747   5.683   0.864   0.100
17967SOL    HW158748   5.643   0.838   0.183
17967SOL    HW258749   5.611   0.905   0.051
17968SOL     OW58750   6.521   0.364   9.522
17968SOL    HW158751   6.543   0.452   9.492
17968SOL    HW258752   6.565   0.306   9.460
17969SOL     OW58753   5.898   1.895   0.197
17969SOL    HW158754   5.926   1.806   0.220
17969SOL    HW258755   5.965   1.952   0.234
17970SOL     OW58756   6.695   1.863   9.462
17970SOL    HW158757   6.677   1.824   9.548
17970SOL    HW258758   6.694   1.789   9.401
17971SOL     OW58759   7.224   1.397   9.461
17971SOL    HW158760   7.200   1.489   9.467
17971SOL    HW258761   7.143   1.351   9.440
17972SOL     OW58762   6.077   1.710   9.650
17972SOL    HW158763   6.081   1.632   9.706
17972SOL    HW258764   6.134   1.689   9.576
17973SOL     OW58765   7.004   0.188   9.731
17973SOL    HW158766   7.013   0.178   9.636
17973SOL    HW258767   7.083   0.234   9.759
17974SOL     OW58768   5.986   0.715   9.837
17974SOL    HW158769   6.008   0.622   9.842
17974SOL    HW258770   5.891   0.717   9.838
17975SOL     OW58771   6.188   0.071   9.482
17975SOL    HW158772   6.231   9.994   9.519
17975SOL    HW258773   6.182   0.052   9.388
17976SOL     OW58774   6.129   0.106   9.877
17976SOL    HW158775   6.039   0.085   9.899
17976SOL    HW258776   6.123   0.170   9.806
17977SOL     OW58777   5.906   0.063   9.496
17977SOL    HW158778   5.909   0.090   9.404
17977SOL    HW258779   5.998   0.058   9.522
17978SOL     OW58780   6.528   0.222   9.760
17978SOL    HW158781   6.509   0.266   9.677
17978SOL    HW258782   6.615   0.254   9.784
17979SOL     OW58783   6.752   1.974   9.914
17979SOL    HW158784   6.791   1.955   9.828
17979SOL    HW258785   6.821   1.952   9.977
17980SOL     OW58786   6.617   0.582   9.389
17980SOL    HW158787   6.557   0.652   9.360
17980SOL    HW258788   6.665   0.558   9.310
17981SOL     OW58789   6.465   0.447   9.930
17981SOL    HW158790   6.427   0.507   9.867
17981SOL    HW258791   6.468   0.363   9.885
17982SOL     OW58792   7.420   0.782   9.611
17982SOL    HW158793   7.473   0.741   9.680
17982SOL    HW258794   7.395   0.709   9.554
17983SOL     OW58795   6.037   1.462   9.454
17983SOL    HW158796   5.961   1.466   9.512
17983SOL    HW258797   6.064   1.370   9.454
17984SOL     OW58798   6.119   0.281   9.658
17984SOL    HW158799   6.148   0.218   9.593
17984SOL    HW258800   6.105   0.362   9.609
17985SOL     OW58801   7.181   0.703   9.739
17985SOL    HW158802   7.162   0.759   9.815
17985SOL    HW258803   7.256   0.745   9.696
17986SOL     OW58804   6.886   0.516   9.617
17986SOL    HW158805   6.818   0.492   9.555
17986SOL    HW258806   6.880   0.611   9.624
17987SOL     OW58807   5.866   0.077   9.964
17987SOL    HW158808   5.830   0.164   9.948
17987SOL    HW258809   5.864   0.067   0.059
17988SOL     OW58810   7.220   0.378   9.793
17988SOL    HW158811   7.261   0.293   9.781
17988SOL    HW258812   7.273   0.422   9.859
17989SOL     OW58813   7.115   0.321   9.484
17989SOL    HW158814   7.040   0.271   9.452
17989SOL    HW258815   7.189   0.293   9.431
17990SOL     OW58816   6.916   0.890   9.349
17990SOL    HW158817   6.999   0.915   9.388
17990SOL    HW258818   6.929   0.899   9.255
17991SOL     OW58819   6.392   0.600   9.704
17991SOL    HW158820   6.386   0.533   9.635
17991SOL    HW258821   6.324   0.663   9.681
17992SOL     OW58822   6.069   0.527   9.539
17992SOL    HW158823   6.109   0.612   9.557
17992SOL    HW258824   5.977   0.547   9.523
17993SOL     OW58825   6.888   0.787   9.606
17993SOL    HW158826   6.806   0.806   9.651
17993SOL    HW258827   6.876   0.820   9.518
17994SOL     OW58828   7.326   0.132   9.767
17994SOL    HW158829   7.386   0.147   9.694
17994SOL    HW258830   7.373   0.070   9.824
17995SOL     OW58831   6.226   1.658   9.395
17995SOL    HW158832   6.298   1.633   9.454
17995SOL    HW258833   6.165   1.585   9.400
17996SOL     OW58834   7.393   0.166   0.211
17996SOL    HW158835   7.488   0.160   0.201
17996SOL    HW258836   7.359   0.084   0.174
17997SOL     OW58837   6.689   1.659   9.279
17997SOL    HW158838   6.765   1.601   9.287
17997SOL    HW258839   6.614   1.599   9.274
17998SOL     OW58840   6.669   0.995   9.682
17998SOL    HW158841   6.656   0.987   9.588
17998SOL    HW258842   6.644   0.910   9.718
17999SOL     OW58843   7.021   1.687   9.263
17999SOL    HW158844   6.979   1.602   9.275
17999SOL    HW258845   7.086   1.673   9.194
18000SOL     OW58846   5.809   1.454   9.604
18000SOL    HW158847   5.720   1.427   9.579
18000SOL    HW258848   5.802   1.476   9.697
18001SOL     OW58849   5.680   0.321   9.313
18001SOL    HW158850   5.587   0.345   9.308
18001SOL    HW258851   5.727   0.398   9.281
18002SOL     OW58852   5.676   0.196   9.569
18002SOL    HW158853   5.674   0.243   9.486
18002SOL    HW258854   5.753   0.139   9.563
18003SOL     OW58855   6.779   0.316   9.812
18003SOL    HW158856   6.854   0.263   9.783
18003SOL    HW258857   6.800   0.404   9.781
18004SOL     OW58858   6.104   0.898   0.005
18004SOL    HW158859   6.189   0.857   0.021
18004SOL    HW258860   6.056   0.834   9.952
18005SOL     OW58861   6.405   1.362   9.315
18005SOL    HW158862   6.421   1.346   9.409
18005SOL    HW258863   6.493   1.364   9.277
18006SOL     OW58864   6.666   0.984   9.412
18006SOL    HW158865   6.632   1.032   9.336
18006SOL    HW258866   6.751   0.950   9.383
18007SOL     OW58867   5.783   1.217   9.916
18007SOL    HW158868   5.718   1.223   9.986
18007SOL    HW258869   5.734   1.183   9.841
18008SOL     OW58870   6.001   0.442   9.859
18008SOL    HW158871   6.042   0.386   9.793
18008SOL    HW258872   5.920   0.397   9.882
18009SOL     OW58873   6.439   1.248   9.573
18009SOL    HW158874   6.388   1.168   9.559
18009SOL    HW258875   6.386   1.300   9.633
18010SOL     OW58876   6.911   0.142   9.437
18010SOL    HW158877   6.951   0.085   9.371
18010SOL    HW258878   6.860   0.082   9.492
18011SOL     OW58879   5.652   1.119   9.694
18011SOL    HW158880   5.631   1.167   9.613
18011SOL    HW258881   5.624   1.029   9.676
18012SOL     OW58882   6.377   1.587   9.611
18012SOL    HW158883   6.348   1.514   9.666
18012SOL    HW258884   6.400   1.656   9.673
18013SOL     OW58885   5.763   2.483   0.135
18013SOL    HW158886   5.732   2.423   0.068
18013SOL    HW258887   5.841   2.442   0.171
18014SOL     OW58888   5.797   2.193   0.988
18014SOL    HW158889   5.874   2.138   1.005
18014SOL    HW258890   5.726   2.131   0.974
18015SOL     OW58891   5.577   2.255   0.648
18015SOL    HW158892   5.496   2.292   0.684
18015SOL    HW258893   5.548   2.178   0.599
18016SOL     OW58894   6.173   3.128   1.198
18016SOL    HW158895   6.148   3.042   1.163
18016SOL    HW258896   6.188   3.182   1.120
18017SOL     OW58897   7.150   3.356   0.692
18017SOL    HW158898   7.115   3.317   0.772
18017SOL    HW258899   7.212   3.291   0.659
18018SOL     OW58900   6.630   2.676   0.648
18018SOL    HW158901   6.713   2.724   0.648
18018SOL    HW258902   6.622   2.642   0.737
18019SOL     OW58903   7.258   2.427   0.294
18019SOL    HW158904   7.250   2.415   0.199
18019SOL    HW258905   7.233   2.342   0.330
18020SOL     OW58906   6.437   3.001   1.107
18020SOL    HW158907   6.363   2.941   1.105
18020SOL    HW258908   6.404   3.082   1.068
18021SOL     OW58909   6.368   2.810   1.844
18021SOL    HW158910   6.453   2.814   1.886
18021SOL    HW258911   6.382   2.759   1.764
18022SOL     OW58912   6.273   2.863   0.656
18022SOL    HW158913   6.318   2.837   0.737
18022SOL    HW258914   6.199   2.915   0.686
18023SOL     OW58915   6.237   3.060   1.840
18023SOL    HW158916   6.305   3.122   1.866
18023SOL    HW258917   6.280   2.975   1.840
18024SOL     OW58918   5.890   3.337   1.051
18024SOL    HW158919   5.831   3.289   0.993
18024SOL    HW258920   5.954   3.378   0.992
18025SOL     OW58921   7.002   3.365   1.371
18025SOL    HW158922   7.063   3.439   1.367
18025SOL    HW258923   7.058   3.288   1.353
18026SOL     OW58924   5.990   2.269   1.587
18026SOL    HW158925   6.084   2.250   1.585
18026SOL    HW258926   5.955   2.224   1.510
18027SOL     OW58927   7.189   2.355   0.673
18027SOL    HW158928   7.125   2.285   0.656
18027SOL    HW258929   7.164   2.426   0.614
18028SOL     OW58930   6.764   3.171   1.740
18028SOL    HW158931   6.844   3.177   1.688
18028SOL    HW258932   6.723   3.089   1.711
18029SOL     OW58933   5.801   2.931   0.856
18029SOL    HW158934   5.839   2.856   0.901
18029SOL    HW258935   5.706   2.920   0.866
18030SOL     OW58936   6.191   3.660   1.523
18030SOL    HW158937   6.103   3.651   1.558
18030SOL    HW258938   6.204   3.754   1.514
18031SOL     OW58939   6.154   2.827   0.160
18031SOL    HW158940   6.211   2.796   0.090
18031SOL    HW258941   6.214   2.862   0.226
18032SOL     OW58942   7.120   2.016   1.392
18032SOL    HW158943   7.200   2.024   1.341
18032SOL    HW258944   7.074   2.098   1.378
18033SOL     OW58945   5.704   2.491   0.569
18033SOL    HW158946   5.671   2.404   0.588
18033SOL    HW258947   5.700   2.537   0.653
18034SOL     OW58948   7.413   3.698   0.398
18034SOL    HW158949   7.419   3.605   0.378
18034SOL    HW258950   7.481   3.738   0.343
18035SOL     OW58951   7.284   2.783   0.639
18035SOL    HW158952   7.315   2.698   0.607
18035SOL    HW258953   7.272   2.836   0.560
18036SOL     OW58954   7.261   2.975   0.433
18036SOL    HW158955   7.335   2.956   0.376
18036SOL    HW258956   7.294   3.042   0.494
18037SOL     OW58957   5.711   2.598   1.564
18037SOL    HW158958   5.806   2.612   1.567
18037SOL    HW258959   5.676   2.677   1.523
18038SOL     OW58960   6.177   3.223   0.793
18038SOL    HW158961   6.131   3.140   0.779
18038SOL    HW258962   6.194   3.256   0.705
18039SOL     OW58963   6.826   3.034   1.449
18039SOL    HW158964   6.846   2.988   1.368
18039SOL    HW258965   6.911   3.052   1.489
18040SOL     OW58966   6.441   1.882   0.516
18040SOL    HW158967   6.471   1.966   0.480
18040SOL    HW258968   6.346   1.886   0.509
18041SOL     OW58969   5.783   2.816   1.256
18041SOL    HW158970   5.874   2.789   1.271
18041SOL    HW258971   5.758   2.771   1.175
18042SOL     OW58972   7.009   2.956   0.315
18042SOL    HW158973   6.976   2.866   0.319
18042SOL    HW258974   7.102   2.948   0.333
18043SOL     OW58975   6.707   3.676   1.631
18043SOL    HW158976   6.730   3.745   1.569
18043SOL    HW258977   6.739   3.596   1.590
18044SOL     OW58978   5.932   2.117   1.821
18044SOL    HW158979   5.956   2.172   1.746
18044SOL    HW258980   5.846   2.150   1.849
18045SOL     OW58981   7.015   3.283   0.923
18045SOL    HW158982   6.957   3.302   0.996
18045SOL    HW258983   7.005   3.189   0.908
18046SOL     OW58984   7.226   3.626   0.598
18046SOL    HW158985   7.283   3.645   0.523
18046SOL    HW258986   7.248   3.536   0.622
18047SOL     OW58987   6.169   2.561   0.293
18047SOL    HW158988   6.168   2.644   0.247
18047SOL    HW258989   6.103   2.571   0.362
18048SOL     OW58990   6.832   2.250   1.060
18048SOL    HW158991   6.757   2.215   1.012
18048SOL    HW258992   6.899   2.182   1.053
18049SOL     OW58993   7.121   3.596   0.272
18049SOL    HW158994   7.210   3.583   0.237
18049SOL    HW258995   7.094   3.509   0.301
18050SOL     OW58996   6.245   2.484   1.524
18050SOL    HW158997   6.295   2.444   1.596
18050SOL    HW258998   6.244   2.417   1.456
18051SOL     OW58999   6.974   2.332   1.661
18051SOL    HW159000   6.988   2.367   1.749
18051SOL    HW259001   7.018   2.248   1.661
18052SOL     OW59002   6.507   2.704   1.613
18052SOL    HW159003   6.532   2.621   1.573
18052SOL    HW259004   6.475   2.757   1.541
18053SOL     OW59005   6.535   2.290   1.275
18053SOL    HW159006   6.498   2.211   1.315
18053SOL    HW259007   6.585   2.258   1.200
18054SOL     OW59008   6.643   2.567   0.400
18054SOL    HW159009   6.636   2.600   0.489
18054SOL    HW259010   6.565   2.514   0.387
18055SOL     OW59011   5.685   2.632   0.801
18055SOL    HW159012   5.755   2.651   0.864
18055SOL    HW259013   5.620   2.700   0.816
18056SOL     OW59014   5.695   3.690   1.563
18056SOL    HW159015   5.663   3.677   1.652
18056SOL    HW259016   5.668   3.610   1.517
18057SOL     OW59017   6.442   2.246   0.151
18057SOL    HW159018   6.526   2.288   0.133
18057SOL    HW259019   6.459   2.152   0.142
18058SOL     OW59020   7.249   2.410   1.852
18058SOL    HW159021   7.249   2.501   1.825
18058SOL    HW259022   7.269   2.361   1.772
18059SOL     OW59023   6.995   3.065   0.587
18059SOL    HW159024   7.056   3.034   0.521
18059SOL    HW259025   6.942   3.132   0.542
18060SOL     OW59026   6.059   2.090   0.956
18060SOL    HW159027   6.053   1.994   0.958
18060SOL    HW259028   6.128   2.109   0.892
18061SOL     OW59029   5.906   3.670   0.928
18061SOL    HW159030   5.968   3.601   0.903
18061SOL    HW259031   5.949   3.751   0.903
18062SOL     OW59032   7.356   2.932   0.858
18062SOL    HW159033   7.328   2.871   0.790
18062SOL    HW259034   7.300   2.913   0.933
18063SOL     OW59035   6.778   3.440   1.510
18063SOL    HW159036   6.722   3.373   1.472
18063SOL    HW259037   6.865   3.423   1.473
18064SOL     OW59038   5.903   2.817   0.288
18064SOL    HW159039   5.982   2.822   0.235
18064SOL    HW259040   5.886   2.723   0.298
18065SOL     OW59041   6.998   2.625   0.748
18065SOL    HW159042   6.955   2.540   0.736
18065SOL    HW259043   7.076   2.620   0.692
18066SOL     OW59044   6.762   3.543   0.211
18066SOL    HW159045   6.728   3.550   0.300
18066SOL    HW259046   6.766   3.449   0.194
18067SOL     OW59047   5.719   2.100   1.543
18067SOL    HW159048   5.786   2.108   1.474
18067SOL    HW259049   5.706   2.005   1.551
18068SOL     OW59050   7.149   3.355   0.052
18068SOL    HW159051   7.224   3.403   0.088
18068SOL    HW259052   7.152   3.269   0.095
18069SOL     OW59053   6.161   3.580   0.416
18069SOL    HW159054   6.228   3.645   0.438
18069SOL    HW259055   6.183   3.552   0.328
18070SOL     OW59056   5.849   3.628   1.195
18070SOL    HW159057   5.894   3.548   1.222
18070SOL    HW259058   5.864   3.632   1.100
18071SOL     OW59059   6.473   3.559   0.980
18071SOL    HW159060   6.548   3.501   0.992
18071SOL    HW259061   6.430   3.527   0.901
18072SOL     OW59062   5.963   2.539   0.481
18072SOL    HW159063   5.989   2.448   0.497
18072SOL    HW259064   5.870   2.541   0.502
18073SOL     OW59065   7.065   2.064   1.664
18073SOL    HW159066   7.016   1.998   1.714
18073SOL    HW259067   7.074   2.025   1.577
18074SOL     OW59068   6.250   1.993   0.101
18074SOL    HW159069   6.345   1.976   0.099
18074SOL    HW259070   6.221   1.977   0.011
18075SOL     OW59071   6.374   2.117   1.825
18075SOL    HW159072   6.454   2.069   1.801
18075SOL    HW259073   6.320   2.052   1.871
18076SOL     OW59074   6.442   3.375   1.232
18076SOL    HW159075   6.422   3.345   1.143
18076SOL    HW259076   6.512   3.316   1.262
18077SOL     OW59077   6.868   2.473   1.450
18077SOL    HW159078   6.919   2.437   1.522
18077SOL    HW259079   6.916   2.552   1.425
18078SOL     OW59080   6.385   3.244   0.979
18078SOL    HW159081   6.466   3.237   0.930
18078SOL    HW259082   6.316   3.245   0.913
18079SOL     OW59083   6.507   2.353   0.890
18079SOL    HW159084   6.487   2.342   0.797
18079SOL    HW259085   6.543   2.268   0.917
18080SOL     OW59086   6.165   1.901   0.494
18080SOL    HW159087   6.103   1.894   0.567
18080SOL    HW259088   6.127   1.967   0.436
18081SOL     OW59089   6.564   2.121   0.453
18081SOL    HW159090   6.578   2.137   0.359
18081SOL    HW259091   6.652   2.123   0.491
18082SOL     OW59092   6.596   2.509   1.430
18082SOL    HW159093   6.566   2.430   1.386
18082SOL    HW259094   6.691   2.499   1.436
18083SOL     OW59095   6.036   3.001   0.717
18083SOL    HW159096   5.962   2.971   0.770
18083SOL    HW259097   6.000   3.009   0.628
18084SOL     OW59098   6.672   2.360   0.077
18084SOL    HW159099   6.737   2.405   0.024
18084SOL    HW259100   6.717   2.341   0.160
18085SOL     OW59101   5.702   2.418   1.351
18085SOL    HW159102   5.795   2.419   1.332
18085SOL    HW259103   5.693   2.469   1.431
18086SOL     OW59104   6.164   2.061   1.215
18086SOL    HW159105   6.204   1.974   1.220
18086SOL    HW259106   6.133   2.068   1.125
18087SOL     OW59107   6.442   2.309   0.624
18087SOL    HW159108   6.421   2.364   0.549
18087SOL    HW259109   6.481   2.231   0.586
18088SOL     OW59110   6.564   1.932   0.758
18088SOL    HW159111   6.514   1.921   0.677
18088SOL    HW259112   6.542   1.855   0.810
18089SOL     OW59113   7.000   3.016   0.866
18089SOL    HW159114   6.951   2.933   0.870
18089SOL    HW259115   7.013   3.031   0.773
18090SOL     OW59116   6.972   2.491   1.120
18090SOL    HW159117   6.929   2.410   1.091
18090SOL    HW259118   7.063   2.466   1.137
18091SOL     OW59119   7.415   2.640   0.392
18091SOL    HW159120   7.462   2.595   0.463
18091SOL    HW259121   7.372   2.570   0.344
18092SOL     OW59122   6.006   3.221   0.279
18092SOL    HW159123   5.995   3.180   0.193
18092SOL    HW259124   6.100   3.219   0.294
18093SOL     OW59125   7.333   3.137   0.661
18093SOL    HW159126   7.320   3.069   0.728
18093SOL    HW259127   7.428   3.146   0.654
18094SOL     OW59128   6.955   2.404   0.122
18094SOL    HW159129   6.913   2.380   0.204
18094SOL    HW259130   7.007   2.327   0.098
18095SOL     OW59131   6.081   2.084   0.294
18095SOL    HW159132   6.150   2.051   0.236
18095SOL    HW259133   6.049   2.163   0.251
18096SOL     OW59134   7.295   3.145   1.555
18096SOL    HW159135   7.371   3.088   1.543
18096SOL    HW259136   7.332   3.230   1.581
18097SOL     OW59137   6.629   3.230   1.408
18097SOL    HW159138   6.545   3.185   1.412
18097SOL    HW259139   6.694   3.160   1.413
18098SOL     OW59140   7.214   3.558   1.630
18098SOL    HW159141   7.197   3.565   1.537
18098SOL    HW259142   7.294   3.506   1.636
18099SOL     OW59143   6.695   3.101   1.097
18099SOL    HW159144   6.613   3.053   1.114
18099SOL    HW259145   6.686   3.131   1.006
18100SOL     OW59146   7.177   2.937   1.079
18100SOL    HW159147   7.163   2.998   1.151
18100SOL    HW259148   7.110   2.960   1.014
18101SOL     OW59149   6.455   2.046   1.379
18101SOL    HW159150   6.440   1.982   1.309
18101SOL    HW259151   6.542   2.026   1.412
18102SOL     OW59152   6.667   2.929   1.654
18102SOL    HW159153   6.615   2.851   1.634
18102SOL    HW259154   6.716   2.946   1.574
18103SOL     OW59155   6.310   2.915   0.377
18103SOL    HW159156   6.306   2.892   0.469
18103SOL    HW259157   6.390   2.872   0.345
18104SOL     OW59158   6.038   2.713   1.281
18104SOL    HW159159   6.093   2.728   1.357
18104SOL    HW259160   6.016   2.620   1.284
18105SOL     OW59161   6.899   2.219   1.329
18105SOL    HW159162   6.889   2.307   1.367
18105SOL    HW259163   6.873   2.230   1.238
18106SOL     OW59164   5.682   3.458   1.383
18106SOL    HW159165   5.662   3.518   1.311
18106SOL    HW259166   5.774   3.433   1.369
18107SOL     OW59167   5.914   3.033   0.468
18107SOL    HW159168   5.942   3.101   0.407
18107SOL    HW259169   5.909   2.953   0.414
18108SOL     OW59170   6.167   2.426   0.858
18108SOL    HW159171   6.148   2.501   0.802
18108SOL    HW259172   6.227   2.372   0.806
18109SOL     OW59173   6.802   3.298   0.461
18109SOL    HW159174   6.791   3.263   0.373
18109SOL    HW259175   6.748   3.378   0.462
18110SOL     OW59176   6.848   3.332   1.141
18110SOL    HW159177   6.895   3.334   1.224
18110SOL    HW259178   6.796   3.251   1.145
18111SOL     OW59179   7.116   2.558   0.494
18111SOL    HW159180   7.046   2.603   0.448
18111SOL    HW259181   7.173   2.524   0.425
18112SOL     OW59182   5.937   3.372   1.317
18112SOL    HW159183   5.930   3.341   1.226
18112SOL    HW259184   6.031   3.387   1.329
18113SOL     OW59185   5.987   2.580   1.605
18113SOL    HW159186   6.073   2.589   1.565
18113SOL    HW259187   5.977   2.487   1.621
18114SOL     OW59188   7.226   2.660   1.733
18114SOL    HW159189   7.140   2.699   1.716
18114SOL    HW259190   7.277   2.681   1.654
18115SOL     OW59191   6.607   1.988   1.773
18115SOL    HW159192   6.658   2.062   1.740
18115SOL    HW259193   6.654   1.911   1.739
18116SOL     OW59194   6.066   1.880   1.789
18116SOL    HW159195   6.041   1.828   1.713
18116SOL    HW259196   6.021   1.964   1.776
18117SOL     OW59197   6.179   2.852   1.074
18117SOL    HW159198   6.236   2.804   1.013
18117SOL    HW259199   6.153   2.787   1.139
18118SOL     OW59200   6.921   2.727   0.995
18118SOL    HW159201   6.952   2.701   0.908
18118SOL    HW259202   6.938   2.651   1.050
18119SOL     OW59203   6.787   2.321   0.330
18119SOL    HW159204   6.810   2.254   0.393
18119SOL    HW259205   6.760   2.396   0.383
18120SOL     OW59206   5.928   2.094   1.360
18120SOL    HW159207   6.016   2.094   1.324
18120SOL    HW259208   5.884   2.019   1.319
18121SOL     OW59209   5.569   3.217   1.278
18121SOL    HW159210   5.615   3.146   1.323
18121SOL    HW259211   5.610   3.297   1.312
18122SOL     OW59212   6.336   2.472   1.073
18122SOL    HW159213   6.409   2.430   1.028
18122SOL    HW259214   6.263   2.465   1.012
18123SOL     OW59215   7.368   2.786   1.930
18123SOL    HW159216   7.332   2.731   1.860
18123SOL    HW259217   7.291   2.821   1.975
18124SOL     OW59218   5.967   1.891   0.694
18124SOL    HW159219   5.919   1.971   0.713
18124SOL    HW259220   5.988   1.854   0.779
18125SOL     OW59221   7.168   2.184   0.395
18125SOL    HW159222   7.240   2.129   0.426
18125SOL    HW259223   7.102   2.178   0.463
18126SOL     OW59224   6.612   2.606   0.914
18126SOL    HW159225   6.695   2.610   0.963
18126SOL    HW259226   6.589   2.514   0.914
18127SOL     OW59227   6.541   3.351   1.696
18127SOL    HW159228   6.536   3.393   1.611
18127SOL    HW259229   6.621   3.298   1.692
18128SOL     OW59230   7.430   3.380   1.615
18128SOL    HW159231   7.465   3.397   1.528
18128SOL    HW259232   7.506   3.390   1.673
18129SOL     OW59233   6.007   2.850   1.723
18129SOL    HW159234   6.040   2.818   1.807
18129SOL    HW259235   6.017   2.775   1.664
18130SOL     OW59236   7.077   2.160   0.126
18130SOL    HW159237   7.045   2.073   0.103
18130SOL    HW259238   7.105   2.152   0.218
18131SOL     OW59239   6.944   2.673   0.069
18131SOL    HW159240   6.948   2.577   0.073
18131SOL    HW259241   7.028   2.699   0.030
18132SOL     OW59242   6.622   3.201   0.841
18132SOL    HW159243   6.611   3.110   0.811
18132SOL    HW259244   6.673   3.243   0.771
18133SOL     OW59245   5.888   2.706   0.991
18133SOL    HW159246   5.975   2.742   1.012
18133SOL    HW259247   5.899   2.611   0.997
18134SOL     OW59248   5.933   2.435   1.007
18134SOL    HW159249   5.879   2.356   0.997
18134SOL    HW259250   6.011   2.417   0.955
18135SOL     OW59251   6.722   2.222   1.681
18135SOL    HW159252   6.682   2.284   1.741
18135SOL    HW259253   6.808   2.261   1.661
18136SOL     OW59254   6.723   2.048   1.465
18136SOL    HW159255   6.714   2.109   1.538
18136SOL    HW259256   6.785   2.090   1.406
18137SOL     OW59257   5.632   3.656   0.940
18137SOL    HW159258   5.604   3.579   0.889
18137SOL    HW259259   5.727   3.659   0.927
18138SOL     OW59260   6.086   3.462   0.894
18138SOL    HW159261   6.164   3.515   0.879
18138SOL    HW259262   6.109   3.376   0.858
18139SOL     OW59263   6.451   2.662   1.240
18139SOL    HW159264   6.507   2.609   1.297
18139SOL    HW259265   6.412   2.599   1.179
18140SOL     OW59266   5.530   2.289   1.188
18140SOL    HW159267   5.583   2.255   1.115
18140SOL    HW259268   5.594   2.331   1.246
18141SOL     OW59269   5.777   2.389   1.741
18141SOL    HW159270   5.833   2.337   1.682
18141SOL    HW259271   5.731   2.449   1.682
18142SOL     OW59272   6.989   2.800   1.668
18142SOL    HW159273   7.010   2.892   1.654
18142SOL    HW259274   6.978   2.765   1.579
18143SOL     OW59275   6.403   2.425   0.368
18143SOL    HW159276   6.410   2.356   0.301
18143SOL    HW259277   6.325   2.475   0.343
18144SOL     OW59278   7.243   2.449   1.196
18144SOL    HW159279   7.252   2.380   1.262
18144SOL    HW259280   7.330   2.457   1.157
18145SOL     OW59281   5.823   3.389   1.755
18145SOL    HW159282   5.782   3.403   1.840
18145SOL    HW259283   5.863   3.302   1.761
18146SOL     OW59284   6.213   2.327   1.290
18146SOL    HW159285   6.211   2.233   1.274
18146SOL    HW259286   6.277   2.361   1.228
18147SOL     OW59287   6.480   3.508   1.477
18147SOL    HW159288   6.474   3.472   1.388
18147SOL    HW259289   6.545   3.577   1.470
18148SOL     OW59290   5.991   2.348   0.233
18148SOL    HW159291   6.065   2.408   0.225
18148SOL    HW259292   5.981   2.335   0.327
18149SOL     OW59293   5.706   3.021   1.418
18149SOL    HW159294   5.688   2.977   1.502
18149SOL    HW259295   5.727   2.949   1.358
18150SOL     OW59296   6.863   2.903   1.205
18150SOL    HW159297   6.887   2.843   1.134
18150SOL    HW259298   6.809   2.970   1.162
18151SOL     OW59299   6.908   2.684   0.344
18151SOL    HW159300   6.821   2.647   0.360
18151SOL    HW259301   6.921   2.678   0.250
18152SOL     OW59302   7.293   3.581   1.106
18152SOL    HW159303   7.376   3.603   1.065
18152SOL    HW259304   7.286   3.486   1.098
18153SOL     OW59305   6.818   3.604   1.091
18153SOL    HW159306   6.904   3.630   1.059
18153SOL    HW259307   6.826   3.510   1.110
18154SOL     OW59308   5.627   3.177   0.969
18154SOL    HW159309   5.645   3.147   1.058
18154SOL    HW259310   5.606   3.097   0.921
18155SOL     OW59311   6.301   3.498   1.727
18155SOL    HW159312   6.282   3.556   1.653
18155SOL    HW259313   6.392   3.469   1.712
18156SOL     OW59314   6.528   1.991   0.074
18156SOL    HW159315   6.599   1.998   0.010
18156SOL    HW259316   6.557   1.923   0.135
18157SOL     OW59317   7.376   2.032   0.500
18157SOL    HW159318   7.440   2.002   0.435
18157SOL    HW259319   7.353   1.953   0.549
18158SOL     OW59320   5.655   3.664   1.834
18158SOL    HW159321   5.649   3.576   1.872
18158SOL    HW259322   5.721   3.709   1.887
18159SOL     OW59323   6.851   2.842   0.679
18159SOL    HW159324   6.911   2.768   0.692
18159SOL    HW259325   6.902   2.903   0.625
18160SOL     OW59326   6.366   3.139   1.402
18160SOL    HW159327   6.318   3.178   1.475
18160SOL    HW259328   6.303   3.139   1.329
18161SOL     OW59329   6.210   3.478   0.159
18161SOL    HW159330   6.301   3.484   0.187
18161SOL    HW259331   6.208   3.406   0.096
18162SOL     OW59332   7.166   3.590   1.356
18162SOL    HW159333   7.221   3.579   1.278
18162SOL    HW259334   7.149   3.684   1.360
18163SOL     OW59335   7.405   2.032   0.964
18163SOL    HW159336   7.440   1.945   0.945
18163SOL    HW259337   7.331   2.042   0.904
18164SOL     OW59338   5.842   2.165   0.709
18164SOL    HW159339   5.752   2.187   0.686
18164SOL    HW259340   5.849   2.183   0.803
18165SOL     OW59341   6.430   2.869   1.413
18165SOL    HW159342   6.447   2.817   1.335
18165SOL    HW259343   6.427   2.960   1.381
18166SOL     OW59344   6.522   2.786   0.264
18166SOL    HW159345   6.579   2.810   0.191
18166SOL    HW259346   6.566   2.712   0.305
18167SOL     OW59347   5.936   3.147   1.498
18167SOL    HW159348   5.947   3.220   1.437
18167SOL    HW259349   5.858   3.101   1.467
18168SOL     OW59350   7.165   3.156   1.290
18168SOL    HW159351   7.229   3.136   1.358
18168SOL    HW259352   7.214   3.204   1.224
18169SOL     OW59353   6.610   2.945   0.759
18169SOL    HW159354   6.556   2.880   0.714
18169SOL    HW259355   6.700   2.918   0.741
18170SOL     OW59356   6.611   2.111   0.962
18170SOL    HW159357   6.601   2.060   0.881
18170SOL    HW259358   6.601   2.046   1.032
18171SOL     OW59359   6.218   3.343   0.549
18171SOL    HW159360   6.247   3.286   0.478
18171SOL    HW259361   6.194   3.425   0.506
18172SOL     OW59362   7.329   2.248   1.377
18172SOL    HW159363   7.416   2.286   1.392
18172SOL    HW259364   7.347   2.170   1.324
18173SOL     OW59365   5.720   2.941   1.700
18173SOL    HW159366   5.650   2.899   1.750
18173SOL    HW259367   5.792   2.878   1.702
18174SOL     OW59368   6.249   2.161   1.563
18174SOL    HW159369   6.298   2.122   1.490
18174SOL    HW259370   6.293   2.128   1.642
18175SOL     OW59371   5.709   2.316   9.919
18175SOL    HW159372   5.643   2.251   9.898
18175SOL    HW259373   5.792   2.275   9.895
18176SOL     OW59374   6.978   2.732   1.402
18176SOL    HW159375   6.926   2.779   1.336
18176SOL    HW259376   7.064   2.721   1.361
18177SOL     OW59377   5.656   1.991   0.291
18177SOL    HW159378   5.645   2.067   0.233
18177SOL    HW259379   5.740   1.953   0.265
18178SOL     OW59380   6.737   3.262   0.186
18178SOL    HW159381   6.654   3.258   0.138
18178SOL    HW259382   6.786   3.186   0.156
18179SOL     OW59383   6.202   2.749   1.500
18179SOL    HW159384   6.279   2.798   1.470
18179SOL    HW259385   6.234   2.659   1.508
18180SOL     OW59386   7.067   3.694   0.990
18180SOL    HW159387   7.105   3.766   0.940
18180SOL    HW259388   7.141   3.650   1.031
18181SOL     OW59389   6.383   2.389   1.750
18181SOL    HW159390   6.471   2.402   1.785
18181SOL    HW259391   6.364   2.296   1.765
18182SOL     OW59392   7.039   3.079   1.639
18182SOL    HW159393   7.058   3.090   1.732
18182SOL    HW259394   7.121   3.101   1.595
18183SOL     OW59395   5.950   3.620   1.653
18183SOL    HW159396   5.871   3.653   1.611
18183SOL    HW259397   5.925   3.532   1.684
18184SOL     OW59398   7.214   2.719   1.263
18184SOL    HW159399   7.226   2.630   1.228
18184SOL    HW259400   7.214   2.775   1.185
18185SOL     OW59401   6.118   2.633   0.691
18185SOL    HW159402   6.176   2.703   0.661
18185SOL    HW259403   6.063   2.613   0.615
18186SOL     OW59404   7.284   2.230   1.656
18186SOL    HW159405   7.308   2.243   1.565
18186SOL    HW259406   7.220   2.159   1.654
18187SOL     OW59407   7.338   2.764   1.506
18187SOL    HW159408   7.399   2.835   1.485
18187SOL    HW259409   7.300   2.740   1.421
18188SOL     OW59410   6.497   3.274   0.043
18188SOL    HW159411   6.408   3.261   0.010
18188SOL    HW259412   6.554   3.247   9.971
18189SOL     OW59413   6.257   3.734   0.955
18189SOL    HW159414   6.274   3.753   0.863
18189SOL    HW259415   6.330   3.677   0.981
18190SOL     OW59416   6.398   2.788   0.902
18190SOL    HW159417   6.450   2.708   0.905
18190SOL    HW259418   6.459   2.858   0.927
18191SOL     OW59419   6.706   2.827   0.062
18191SOL    HW159420   6.698   2.858   9.971
18191SOL    HW259421   6.788   2.778   0.063
18192SOL     OW59422   7.473   3.406   0.827
18192SOL    HW159423   7.506   3.395   0.738
18192SOL    HW259424   7.475   3.318   0.864
18193SOL     OW59425   5.893   3.125   1.813
18193SOL    HW159426   5.828   3.072   1.766
18193SOL    HW259427   5.886   3.097   1.904
18194SOL     OW59428   5.720   3.109   0.654
18194SOL    HW159429   5.752   3.053   0.725
18194SOL    HW259430   5.778   3.090   0.580
18195SOL     OW59431   6.199   3.266   1.597
18195SOL    HW159432   6.184   3.316   1.517
18195SOL    HW259433   6.236   3.330   1.659
18196SOL     OW59434   7.350   2.010   1.234
18196SOL    HW159435   7.379   1.919   1.239
18196SOL    HW259436   7.366   2.036   1.144
18197SOL     OW59437   5.998   2.267   0.501
18197SOL    HW159438   6.039   2.191   0.462
18197SOL    HW259439   5.948   2.232   0.575
18198SOL     OW59440   7.248   3.315   1.075
18198SOL    HW159441   7.179   3.301   1.010
18198SOL    HW259442   7.324   3.270   1.039
18199SOL     OW59443   5.968   2.448   1.280
18199SOL    HW159444   6.047   2.399   1.299
18199SOL    HW259445   5.953   2.435   1.186
18200SOL     OW59446   6.336   3.497   0.751
18200SOL    HW159447   6.404   3.540   0.700
18200SOL    HW259448   6.294   3.436   0.690
18201SOL     OW59449   7.009   2.048   1.096
18201SOL    HW159450   7.030   1.962   1.059
18201SOL    HW259451   7.003   2.032   1.190
18202SOL     OW59452   6.591   1.905   1.141
18202SOL    HW159453   6.520   1.843   1.126
18202SOL    HW259454   6.671   1.853   1.133
18203SOL     OW59455   6.279   3.185   0.326
18203SOL    HW159456   6.290   3.092   0.347
18203SOL    HW259457   6.350   3.204   0.265
18204SOL     OW59458   6.201   3.426   1.370
18204SOL    HW159459   6.217   3.511   1.411
18204SOL    HW259460   6.279   3.409   1.317
18205SOL     OW59461   6.967   1.903   0.074
18205SOL    HW159462   6.996   1.817   0.042
18205SOL    HW259463   6.945   1.887   0.166
18206SOL     OW59464   6.866   2.387   0.688
18206SOL    HW159465   6.778   2.354   0.669
18206SOL    HW259466   6.924   2.315   0.663
18207SOL     OW59467   7.150   2.045   0.837
18207SOL    HW159468   7.107   2.098   0.904
18207SOL    HW259469   7.118   2.080   0.754
18208SOL     OW59470   5.629   2.887   0.286
18208SOL    HW159471   5.724   2.885   0.284
18208SOL    HW259472   5.604   2.805   0.327
18209SOL     OW59473   6.462   3.510   0.270
18209SOL    HW159474   6.511   3.450   0.213
18209SOL    HW259475   6.516   3.519   0.348
18210SOL     OW59476   5.822   2.519   1.984
18210SOL    HW159477   5.763   2.465   2.036
18210SOL    HW259478   5.814   2.486   1.894
18211SOL     OW59479   5.775   2.183   2.876
18211SOL    HW159480   5.826   2.146   2.948
18211SOL    HW259481   5.696   2.128   2.872
18212SOL     OW59482   5.594   2.275   2.501
18212SOL    HW159483   5.515   2.295   2.552
18212SOL    HW259484   5.568   2.204   2.443
18213SOL     OW59485   6.145   3.172   3.078
18213SOL    HW159486   6.063   3.171   3.028
18213SOL    HW259487   6.168   3.265   3.084
18214SOL     OW59488   7.122   3.385   2.526
18214SOL    HW159489   7.087   3.369   2.614
18214SOL    HW259490   7.193   3.320   2.517
18215SOL     OW59491   6.749   2.564   2.528
18215SOL    HW159492   6.789   2.650   2.539
18215SOL    HW259493   6.710   2.544   2.613
18216SOL     OW59494   6.302   2.995   2.926
18216SOL    HW159495   6.249   3.035   2.996
18216SOL    HW259496   6.325   3.069   2.870
18217SOL     OW59497   6.405   2.636   3.668
18217SOL    HW159498   6.474   2.650   3.733
18217SOL    HW259499   6.443   2.670   3.587
18218SOL     OW59500   6.268   2.844   2.508
18218SOL    HW159501   6.336   2.840   2.576
18218SOL    HW259502   6.207   2.911   2.539
18219SOL     OW59503   6.269   3.008   3.696
18219SOL    HW159504   6.308   3.085   3.736
18219SOL    HW259505   6.193   3.042   3.649
18220SOL     OW59506   5.920   3.252   2.921
18220SOL    HW159507   5.837   3.228   2.880
18220SOL    HW259508   5.969   3.297   2.853
18221SOL     OW59509   6.999   3.393   3.242
18221SOL    HW159510   7.059   3.467   3.243
18221SOL    HW259511   7.055   3.316   3.233
18222SOL     OW59512   6.015   2.286   3.389
18222SOL    HW159513   6.098   2.239   3.383
18222SOL    HW259514   5.948   2.217   3.385
18223SOL     OW59515   7.168   2.336   2.565
18223SOL    HW159516   7.167   2.384   2.482
18223SOL    HW259517   7.260   2.309   2.576
18224SOL     OW59518   5.776   3.576   2.346
18224SOL    HW159519   5.825   3.634   2.404
18224SOL    HW259520   5.812   3.489   2.364
18225SOL     OW59521   6.718   3.154   3.528
18225SOL    HW159522   6.807   3.119   3.521
18225SOL    HW259523   6.665   3.080   3.558
18226SOL     OW59524   5.780   3.296   2.393
18226SOL    HW159525   5.689   3.322   2.408
18226SOL    HW259526   5.791   3.217   2.446
18227SOL     OW59527   5.866   2.927   2.742
18227SOL    HW159528   5.889   2.834   2.750
18227SOL    HW259529   5.821   2.947   2.825
18228SOL     OW59530   6.185   3.686   3.250
18228SOL    HW159531   6.120   3.664   3.317
18228SOL    HW259532   6.269   3.667   3.291
18229SOL     OW59533   6.149   2.807   2.020
18229SOL    HW159534   6.219   2.794   1.956
18229SOL    HW259535   6.192   2.854   2.093
18230SOL     OW59536   7.164   2.009   3.247
18230SOL    HW159537   7.248   2.030   3.207
18230SOL    HW259538   7.177   2.028   3.340
18231SOL     OW59539   5.692   2.514   2.399
18231SOL    HW159540   5.664   2.425   2.421
18231SOL    HW259541   5.687   2.562   2.482
18232SOL     OW59542   7.485   3.639   2.176
18232SOL    HW159543   7.572   3.626   2.213
18232SOL    HW259544   7.500   3.673   2.088
18233SOL     OW59545   5.665   3.424   1.980
18233SOL    HW159546   5.640   3.334   1.999
18233SOL    HW259547   5.637   3.473   2.057
18234SOL     OW59548   7.302   2.744   2.463
18234SOL    HW159549   7.367   2.721   2.530
18234SOL    HW259550   7.332   2.698   2.384
18235SOL     OW59551   7.309   3.002   2.258
18235SOL    HW159552   7.383   2.943   2.241
18235SOL    HW259553   7.327   3.080   2.206
18236SOL     OW59554   5.713   2.562   3.425
18236SOL    HW159555   5.805   2.590   3.421
18236SOL    HW259556   5.663   2.639   3.401
18237SOL     OW59557   6.181   3.267   2.537
18237SOL    HW159558   6.143   3.179   2.541
18237SOL    HW259559   6.165   3.295   2.447
18238SOL     OW59560   6.845   3.077   3.255
18238SOL    HW159561   6.880   3.012   3.194
18238SOL    HW259562   6.905   3.075   3.330
18239SOL     OW59563   6.408   1.925   2.381
18239SOL    HW159564   6.445   2.006   2.345
18239SOL    HW259565   6.315   1.928   2.356
18240SOL     OW59566   5.764   2.814   3.137
18240SOL    HW159567   5.854   2.783   3.128
18240SOL    HW259568   5.710   2.744   3.100
18241SOL     OW59569   7.138   2.867   2.080
18241SOL    HW159570   7.081   2.800   2.118
18241SOL    HW259571   7.196   2.892   2.152
18242SOL     OW59572   6.677   3.681   3.409
18242SOL    HW159573   6.740   3.740   3.367
18242SOL    HW259574   6.722   3.596   3.410
18243SOL     OW59575   5.934   2.133   3.706
18243SOL    HW159576   5.969   2.203   3.761
18243SOL    HW259577   5.842   2.126   3.732
18244SOL     OW59578   7.020   3.318   2.777
18244SOL    HW159579   6.997   3.363   2.858
18244SOL    HW259580   7.051   3.232   2.806
18245SOL     OW59581   7.363   3.620   2.425
18245SOL    HW159582   7.415   3.620   2.345
18245SOL    HW259583   7.423   3.586   2.492
18246SOL     OW59584   6.176   2.568   2.169
18246SOL    HW159585   6.160   2.645   2.115
18246SOL    HW259586   6.101   2.564   2.228
18247SOL     OW59587   7.260   3.488   2.169
18247SOL    HW159588   7.343   3.535   2.158
18247SOL    HW259589   7.255   3.431   2.092
18248SOL     OW59590   6.342   2.452   3.278
18248SOL    HW159591   6.346   2.427   3.370
18248SOL    HW259592   6.281   2.390   3.239
18249SOL     OW59593   6.958   2.286   3.509
18249SOL    HW159594   6.983   2.339   3.584
18249SOL    HW259595   7.017   2.210   3.513
18250SOL     OW59596   6.528   2.735   3.436
18250SOL    HW159597   6.577   2.659   3.403
18250SOL    HW259598   6.494   2.778   3.357
18251SOL     OW59599   6.572   2.262   3.062
18251SOL    HW159600   6.540   2.193   3.121
18251SOL    HW259601   6.577   2.220   2.976
18252SOL     OW59602   6.671   2.567   2.264
18252SOL    HW159603   6.696   2.561   2.356
18252SOL    HW259604   6.583   2.528   2.260
18253SOL     OW59605   5.673   2.653   2.639
18253SOL    HW159606   5.763   2.660   2.670
18253SOL    HW259607   5.627   2.607   2.710
18254SOL     OW59608   5.727   3.712   3.436
18254SOL    HW159609   5.713   3.706   3.530
18254SOL    HW259610   5.685   3.634   3.400
18255SOL     OW59611   6.468   2.263   2.053
18255SOL    HW159612   6.529   2.310   1.995
18255SOL    HW259613   6.420   2.205   1.994
18256SOL     OW59614   7.291   2.468   3.710
18256SOL    HW159615   7.293   2.545   3.654
18256SOL    HW259616   7.329   2.398   3.657
18257SOL     OW59617   7.056   3.014   2.395
18257SOL    HW159618   7.114   3.008   2.320
18257SOL    HW259619   6.989   3.077   2.368
18258SOL     OW59620   6.171   2.007   2.762
18258SOL    HW159621   6.173   2.027   2.855
18258SOL    HW259622   6.190   2.091   2.719
18259SOL     OW59623   6.634   3.299   2.380
18259SOL    HW159624   6.583   3.354   2.320
18259SOL    HW259625   6.589   3.308   2.464
18260SOL     OW59626   5.996   3.651   2.754
18260SOL    HW159627   6.028   3.561   2.759
18260SOL    HW259628   6.071   3.705   2.779
18261SOL     OW59629   7.305   2.925   2.718
18261SOL    HW159630   7.361   2.847   2.721
18261SOL    HW259631   7.341   2.983   2.785
18262SOL     OW59632   6.770   3.413   3.396
18262SOL    HW159633   6.764   3.322   3.426
18262SOL    HW259634   6.849   3.416   3.342
18263SOL     OW59635   5.875   2.784   2.078
18263SOL    HW159636   5.967   2.794   2.053
18263SOL    HW259637   5.852   2.696   2.049
18264SOL     OW59638   7.074   2.651   2.628
18264SOL    HW159639   7.094   2.575   2.684
18264SOL    HW259640   7.154   2.667   2.579
18265SOL     OW59641   6.048   3.156   3.605
18265SOL    HW159642   6.013   3.168   3.516
18265SOL    HW259643   5.970   3.141   3.659
18266SOL     OW59644   6.706   3.557   2.177
18266SOL    HW159645   6.789   3.523   2.210
18266SOL    HW259646   6.714   3.553   2.082
18267SOL     OW59647   5.801   2.099   3.353
18267SOL    HW159648   5.723   2.156   3.348
18267SOL    HW259649   5.768   2.017   3.390
18268SOL     OW59650   7.144   3.319   1.968
18268SOL    HW159651   7.231   3.311   1.930
18268SOL    HW259652   7.103   3.234   1.953
18269SOL     OW59653   7.003   1.943   2.308
18269SOL    HW159654   6.996   1.911   2.218
18269SOL    HW259655   7.085   1.907   2.341
18270SOL     OW59656   5.852   3.660   3.067
18270SOL    HW159657   5.890   3.578   3.098
18270SOL    HW259658   5.816   3.638   2.981
18271SOL     OW59659   6.547   3.533   2.738
18271SOL    HW159660   6.635   3.497   2.734
18271SOL    HW259661   6.498   3.485   2.671
18272SOL     OW59662   5.969   2.527   2.348
18272SOL    HW159663   5.993   2.434   2.355
18272SOL    HW259664   5.873   2.527   2.350
18273SOL     OW59665   7.137   2.061   3.571
18273SOL    HW159666   7.121   2.077   3.664
18273SOL    HW259667   7.154   1.967   3.565
18274SOL     OW59668   6.250   1.923   1.982
18274SOL    HW159669   6.306   1.846   1.989
18274SOL    HW259670   6.187   1.901   1.913
18275SOL     OW59671   6.372   2.139   3.653
18275SOL    HW159672   6.449   2.091   3.622
18275SOL    HW259673   6.324   2.075   3.705
18276SOL     OW59674   6.447   3.379   3.051
18276SOL    HW159675   6.468   3.361   2.959
18276SOL    HW259676   6.506   3.322   3.100
18277SOL     OW59677   6.913   2.472   3.286
18277SOL    HW159678   6.958   2.425   3.356
18277SOL    HW259679   6.968   2.548   3.269
18278SOL     OW59680   6.341   3.230   2.775
18278SOL    HW159681   6.435   3.224   2.762
18278SOL    HW259682   6.304   3.228   2.687
18279SOL     OW59683   6.554   2.387   2.739
18279SOL    HW159684   6.511   2.377   2.654
18279SOL    HW259685   6.574   2.298   2.767
18280SOL     OW59686   6.130   1.834   2.274
18280SOL    HW159687   6.064   1.842   2.343
18280SOL    HW259688   6.121   1.916   2.224
18281SOL     OW59689   7.031   3.067   1.922
18281SOL    HW159690   7.080   3.003   1.973
18281SOL    HW259691   6.948   3.023   1.901
18282SOL     OW59692   5.876   1.909   2.005
18282SOL    HW159693   5.916   1.980   1.956
18282SOL    HW259694   5.930   1.832   1.985
18283SOL     OW59695   6.536   2.156   2.303
18283SOL    HW159696   6.515   2.184   2.214
18283SOL    HW259697   6.631   2.147   2.304
18284SOL     OW59698   6.644   2.500   3.319
18284SOL    HW159699   6.632   2.443   3.395
18284SOL    HW259700   6.738   2.501   3.305
18285SOL     OW59701   6.785   3.397   2.656
18285SOL    HW159702   6.817   3.400   2.566
18285SOL    HW259703   6.862   3.374   2.708
18286SOL     OW59704   6.057   3.021   2.556
18286SOL    HW159705   5.998   2.994   2.627
18286SOL    HW259706   6.013   2.991   2.476
18287SOL     OW59707   6.643   2.409   1.880
18287SOL    HW159708   6.673   2.494   1.849
18287SOL    HW259709   6.704   2.387   1.950
18288SOL     OW59710   5.688   2.360   3.241
18288SOL    HW159711   5.778   2.362   3.209
18288SOL    HW259712   5.686   2.424   3.312
18289SOL     OW59713   6.155   2.042   3.033
18289SOL    HW159714   6.186   1.967   3.084
18289SOL    HW259715   6.062   2.048   3.055
18290SOL     OW59716   6.419   2.330   2.499
18290SOL    HW159717   6.407   2.389   2.424
18290SOL    HW259718   6.457   2.251   2.461
18291SOL     OW59719   6.588   1.944   2.598
18291SOL    HW159720   6.527   1.940   2.524
18291SOL    HW259721   6.573   1.863   2.646
18292SOL     OW59722   7.054   2.455   2.846
18292SOL    HW159723   7.068   2.369   2.805
18292SOL    HW259724   7.107   2.452   2.926
18293SOL     OW59725   7.393   2.588   2.248
18293SOL    HW159726   7.460   2.549   2.303
18293SOL    HW259727   7.437   2.607   2.165
18294SOL     OW59728   6.096   3.252   2.041
18294SOL    HW159729   6.012   3.215   2.067
18294SOL    HW259730   6.137   3.183   1.988
18295SOL     OW59731   7.349   3.221   2.522
18295SOL    HW159732   7.424   3.220   2.462
18295SOL    HW259733   7.384   3.257   2.603
18296SOL     OW59734   6.978   2.433   1.921
18296SOL    HW159735   6.935   2.384   1.991
18296SOL    HW259736   7.071   2.410   1.929
18297SOL     OW59737   6.127   2.095   2.166
18297SOL    HW159738   6.174   2.049   2.096
18297SOL    HW259739   6.094   2.175   2.124
18298SOL     OW59740   7.255   3.125   3.446
18298SOL    HW159741   7.310   3.046   3.448
18298SOL    HW259742   7.315   3.196   3.470
18299SOL     OW59743   6.601   3.188   3.181
18299SOL    HW159744   6.530   3.157   3.238
18299SOL    HW259745   6.681   3.158   3.224
18300SOL     OW59746   7.192   3.523   3.510
18300SOL    HW159747   7.192   3.547   3.418
18300SOL    HW259748   7.266   3.463   3.520
18301SOL     OW59749   6.730   3.086   2.958
18301SOL    HW159750   6.680   3.120   3.032
18301SOL    HW259751   6.685   3.120   2.881
18302SOL     OW59752   7.073   3.104   2.943
18302SOL    HW159753   7.110   3.132   3.026
18302SOL    HW259754   7.061   3.009   2.952
18303SOL     OW59755   6.496   2.049   3.217
18303SOL    HW159756   6.507   1.976   3.155
18303SOL    HW259757   6.572   2.043   3.275
18304SOL     OW59758   6.539   2.952   3.609
18304SOL    HW159759   6.446   2.960   3.633
18304SOL    HW259760   6.541   2.878   3.549
18305SOL     OW59761   6.297   2.907   2.237
18305SOL    HW159762   6.283   2.875   2.326
18305SOL    HW259763   6.380   2.869   2.210
18306SOL     OW59764   6.006   2.689   3.115
18306SOL    HW159765   6.072   2.697   3.183
18306SOL    HW259766   5.977   2.598   3.119
18307SOL     OW59767   6.854   2.263   3.111
18307SOL    HW159768   6.882   2.342   3.158
18307SOL    HW259769   6.761   2.279   3.091
18308SOL     OW59770   5.672   3.469   3.252
18308SOL    HW159771   5.635   3.518   3.179
18308SOL    HW259772   5.763   3.453   3.226
18309SOL     OW59773   5.908   2.947   2.325
18309SOL    HW159774   5.902   3.012   2.255
18309SOL    HW259775   5.904   2.863   2.279
18310SOL     OW59776   6.207   2.383   2.690
18310SOL    HW159777   6.174   2.462   2.647
18310SOL    HW259778   6.269   2.346   2.627
18311SOL     OW59779   6.877   3.206   2.288
18311SOL    HW159780   6.907   3.290   2.254
18311SOL    HW259781   6.790   3.224   2.324
18312SOL     OW59782   6.861   3.350   3.008
18312SOL    HW159783   6.903   3.359   3.094
18312SOL    HW259784   6.850   3.255   2.998
18313SOL     OW59785   7.155   2.475   2.319
18313SOL    HW159786   7.086   2.531   2.283
18313SOL    HW259787   7.236   2.518   2.293
18314SOL     OW59788   5.921   3.398   3.152
18314SOL    HW159789   5.907   3.341   3.077
18314SOL    HW259790   6.016   3.415   3.153
18315SOL     OW59791   5.993   2.572   3.439
18315SOL    HW159792   6.070   2.614   3.402
18315SOL    HW259793   6.009   2.478   3.429
18316SOL     OW59794   7.235   2.693   3.561
18316SOL    HW159795   7.142   2.713   3.546
18316SOL    HW259796   7.281   2.738   3.490
18317SOL     OW59797   6.594   2.020   3.539
18317SOL    HW159798   6.658   2.034   3.469
18317SOL    HW259799   6.586   1.924   3.544
18318SOL     OW59800   6.093   1.936   3.587
18318SOL    HW159801   6.037   1.871   3.545
18318SOL    HW259802   6.033   2.006   3.612
18319SOL     OW59803   6.220   2.723   2.933
18319SOL    HW159804   6.236   2.818   2.930
18319SOL    HW259805   6.137   2.714   2.979
18320SOL     OW59806   6.881   2.668   2.851
18320SOL    HW159807   6.922   2.710   2.775
18320SOL    HW259808   6.933   2.589   2.865
18321SOL     OW59809   6.789   2.359   2.112
18321SOL    HW159810   6.799   2.281   2.167
18321SOL    HW259811   6.754   2.426   2.170
18322SOL     OW59812   5.887   2.056   3.093
18322SOL    HW159813   5.868   2.073   3.186
18322SOL    HW259814   5.859   1.965   3.080
18323SOL     OW59815   5.653   3.207   3.111
18323SOL    HW159816   5.668   3.132   3.169
18323SOL    HW259817   5.639   3.281   3.171
18324SOL     OW59818   6.345   2.478   2.951
18324SOL    HW159819   6.355   2.442   2.863
18324SOL    HW259820   6.297   2.559   2.938
18325SOL     OW59821   7.336   2.894   3.725
18325SOL    HW159822   7.305   2.822   3.669
18325SOL    HW259823   7.284   2.885   3.805
18326SOL     OW59824   5.938   1.898   2.468
18326SOL    HW159825   5.899   1.983   2.486
18326SOL    HW259826   5.954   1.860   2.554
18327SOL     OW59827   7.263   2.249   2.190
18327SOL    HW159828   7.302   2.189   2.254
18327SOL    HW259829   7.228   2.321   2.242
18328SOL     OW59830   6.638   2.561   2.944
18328SOL    HW159831   6.721   2.602   2.918
18328SOL    HW259832   6.616   2.503   2.871
18329SOL     OW59833   6.579   3.379   3.594
18329SOL    HW159834   6.624   3.422   3.521
18329SOL    HW259835   6.607   3.288   3.590
18330SOL     OW59836   7.417   3.349   3.496
18330SOL    HW159837   7.469   3.378   3.421
18330SOL    HW259838   7.477   3.352   3.570
18331SOL     OW59839   5.931   2.767   3.631
18331SOL    HW159840   6.002   2.769   3.696
18331SOL    HW259841   5.955   2.696   3.572
18332SOL     OW59842   7.081   2.138   2.007
18332SOL    HW159843   7.023   2.063   1.998
18332SOL    HW259844   7.091   2.151   2.101
18333SOL     OW59845   6.871   2.679   1.888
18333SOL    HW159846   6.910   2.591   1.890
18333SOL    HW259847   6.910   2.721   1.811
18334SOL     OW59848   6.606   3.203   2.732
18334SOL    HW159849   6.628   3.124   2.683
18334SOL    HW259850   6.675   3.265   2.707
18335SOL     OW59851   5.925   2.656   2.757
18335SOL    HW159852   5.996   2.648   2.694
18335SOL    HW259853   5.930   2.577   2.811
18336SOL     OW59854   5.969   2.394   2.852
18336SOL    HW159855   5.912   2.319   2.837
18336SOL    HW259856   6.049   2.374   2.802
18337SOL     OW59857   6.681   2.319   3.538
18337SOL    HW159858   6.645   2.231   3.548
18337SOL    HW259859   6.776   2.306   3.535
18338SOL     OW59860   6.760   2.091   3.331
18338SOL    HW159861   6.810   2.168   3.357
18338SOL    HW259862   6.803   2.062   3.250
18339SOL     OW59863   5.593   3.162   2.046
18339SOL    HW159864   5.508   3.177   2.006
18339SOL    HW259865   5.592   3.069   2.070
18340SOL     OW59866   5.720   3.624   2.821
18340SOL    HW159867   5.677   3.556   2.769
18340SOL    HW259868   5.808   3.631   2.783
18341SOL     OW59869   6.104   3.397   2.766
18341SOL    HW159870   6.178   3.367   2.818
18341SOL    HW259871   6.118   3.361   2.679
18342SOL     OW59872   5.626   2.427   2.972
18342SOL    HW159873   5.670   2.360   2.919
18342SOL    HW259874   5.650   2.406   3.062
18343SOL     OW59875   5.784   2.401   3.640
18343SOL    HW159876   5.860   2.355   3.604
18343SOL    HW259877   5.750   2.452   3.567
18344SOL     OW59878   6.977   2.778   3.497
18344SOL    HW159879   6.979   2.874   3.498
18344SOL    HW259880   6.988   2.756   3.404
18345SOL     OW59881   6.416   2.457   2.246
18345SOL    HW159882   6.427   2.385   2.184
18345SOL    HW259883   6.335   2.500   2.220
18346SOL     OW59884   7.222   2.444   3.064
18346SOL    HW159885   7.237   2.391   3.141
18346SOL    HW259886   7.306   2.447   3.019
18347SOL     OW59887   5.830   3.418   3.595
18347SOL    HW159888   5.802   3.421   3.687
18347SOL    HW259889   5.855   3.327   3.580
18348SOL     OW59890   6.189   2.305   3.109
18348SOL    HW159891   6.189   2.211   3.087
18348SOL    HW259892   6.238   2.346   3.037
18349SOL     OW59893   6.423   3.588   3.352
18349SOL    HW159894   6.447   3.510   3.301
18349SOL    HW259895   6.506   3.631   3.370
18350SOL     OW59896   6.049   2.340   2.066
18350SOL    HW159897   6.112   2.408   2.090
18350SOL    HW259898   5.981   2.386   2.018
18351SOL     OW59899   5.707   3.012   3.316
18351SOL    HW159900   5.721   2.974   3.403
18351SOL    HW259901   5.737   2.944   3.255
18352SOL     OW59902   6.898   2.880   3.039
18352SOL    HW159903   6.888   2.807   2.977
18352SOL    HW259904   6.842   2.949   3.003
18353SOL     OW59905   6.942   2.677   2.165
18353SOL    HW159906   6.861   2.652   2.210
18353SOL    HW259907   6.920   2.674   2.072
18354SOL     OW59908   7.310   3.591   2.973
18354SOL    HW159909   7.396   3.616   2.938
18354SOL    HW259910   7.309   3.496   2.967
18355SOL     OW59911   6.821   3.620   2.970
18355SOL    HW159912   6.908   3.645   2.937
18355SOL    HW259913   6.827   3.526   2.986
18356SOL     OW59914   5.653   3.201   2.835
18356SOL    HW159915   5.642   3.199   2.930
18356SOL    HW259916   5.600   3.127   2.804
18357SOL     OW59917   6.349   3.522   3.619
18357SOL    HW159918   6.354   3.569   3.536
18357SOL    HW259919   6.431   3.474   3.625
18358SOL     OW59920   7.368   2.061   2.364
18358SOL    HW159921   7.435   2.039   2.299
18358SOL    HW259922   7.328   1.977   2.385
18359SOL     OW59923   6.972   3.450   2.171
18359SOL    HW159924   7.033   3.393   2.123
18359SOL    HW259925   6.968   3.530   2.118
18360SOL     OW59926   5.705   3.687   3.709
18360SOL    HW159927   5.683   3.598   3.736
18360SOL    HW259928   5.768   3.718   3.774
18361SOL     OW59929   6.883   2.818   2.535
18361SOL    HW159930   6.953   2.761   2.565
18361SOL    HW259931   6.926   2.885   2.482
18362SOL     OW59932   6.341   3.127   3.278
18362SOL    HW159933   6.319   3.183   3.353
18362SOL    HW259934   6.269   3.139   3.217
18363SOL     OW59935   6.225   3.495   1.993
18363SOL    HW159936   6.253   3.505   1.903
18363SOL    HW259937   6.184   3.408   1.996
18364SOL     OW59938   7.183   3.598   3.231
18364SOL    HW159939   7.238   3.589   3.153
18364SOL    HW259940   7.170   3.692   3.241
18365SOL     OW59941   7.343   1.982   2.720
18365SOL    HW159942   7.409   1.931   2.768
18365SOL    HW259943   7.335   1.938   2.636
18366SOL     OW59944   5.837   2.147   2.570
18366SOL    HW159945   5.757   2.189   2.540
18366SOL    HW259946   5.827   2.140   2.665
18367SOL     OW59947   6.746   3.522   1.912
18367SOL    HW159948   6.733   3.427   1.916
18367SOL    HW259949   6.747   3.542   1.819
18368SOL     OW59950   6.409   2.867   3.222
18368SOL    HW159951   6.433   2.878   3.130
18368SOL    HW259952   6.390   2.955   3.253
18369SOL     OW59953   6.537   2.803   2.166
18369SOL    HW159954   6.578   2.820   2.081
18369SOL    HW259955   6.585   2.728   2.201
18370SOL     OW59956   7.084   3.573   1.868
18370SOL    HW159957   7.100   3.483   1.898
18370SOL    HW259958   7.125   3.577   1.781
18371SOL     OW59959   5.902   3.213   3.378
18371SOL    HW159960   5.917   3.271   3.304
18371SOL    HW259961   5.845   3.144   3.344
18372SOL     OW59962   7.175   3.184   3.191
18372SOL    HW159963   7.197   3.153   3.279
18372SOL    HW259964   7.260   3.205   3.151
18373SOL     OW59965   6.655   2.968   2.611
18373SOL    HW159966   6.590   2.904   2.641
18373SOL    HW259967   6.730   2.915   2.583
18374SOL     OW59968   6.582   2.109   2.828
18374SOL    HW159969   6.589   2.071   2.741
18374SOL    HW259970   6.582   2.034   2.887
18375SOL     OW59971   6.188   3.371   2.274
18375SOL    HW159972   6.262   3.311   2.277
18375SOL    HW259973   6.137   3.342   2.198
18376SOL     OW59974   7.342   2.299   3.276
18376SOL    HW159975   7.420   2.354   3.269
18376SOL    HW259976   7.364   2.220   3.226
18377SOL     OW59977   5.852   3.169   2.150
18377SOL    HW159978   5.765   3.164   2.111
18377SOL    HW259979   5.840   3.222   2.229
18378SOL     OW59980   5.706   2.912   3.574
18378SOL    HW159981   5.631   2.873   3.621
18378SOL    HW259982   5.780   2.857   3.598
18379SOL     OW59983   6.252   2.105   3.364
18379SOL    HW159984   6.332   2.088   3.314
18379SOL    HW259985   6.280   2.107   3.456
18380SOL     OW59986   5.664   2.170   1.902
18380SOL    HW159987   5.629   2.095   1.854
18380SOL    HW259988   5.654   2.244   1.842
18381SOL     OW59989   7.033   2.724   3.231
18381SOL    HW159990   6.986   2.777   3.166
18381SOL    HW259991   7.123   2.722   3.200
18382SOL     OW59992   5.660   2.018   2.135
18382SOL    HW159993   5.655   2.081   2.064
18382SOL    HW259994   5.741   1.971   2.120
18383SOL     OW59995   6.701   3.243   1.998
18383SOL    HW159996   6.728   3.211   1.911
18383SOL    HW259997   6.757   3.196   2.059
18384SOL     OW59998   6.206   2.689   3.300
18384SOL    HW159999   6.270   2.759   3.286
18384SOL    HW260000   6.258   2.609   3.299
18385SOL     OW60001   7.072   3.688   2.875
18385SOL    HW160002   7.103   3.738   2.799
18385SOL    HW260003   7.151   3.646   2.910
18386SOL     OW60004   6.340   2.395   3.541
18386SOL    HW160005   6.356   2.465   3.604
18386SOL    HW260006   6.349   2.314   3.592
18387SOL     OW60007   6.992   3.062   3.503
18387SOL    HW160008   6.997   3.057   3.599
18387SOL    HW260009   7.080   3.089   3.477
18388SOL     OW60010   5.987   3.613   3.443
18388SOL    HW160011   5.903   3.655   3.426
18388SOL    HW260012   5.965   3.532   3.488
18389SOL     OW60013   7.295   2.713   3.129
18389SOL    HW160014   7.278   2.625   3.096
18389SOL    HW260015   7.385   2.731   3.102
18390SOL     OW60016   6.816   2.158   2.303
18390SOL    HW160017   6.876   2.083   2.299
18390SOL    HW260018   6.843   2.206   2.381
18391SOL     OW60019   6.115   2.616   2.564
18391SOL    HW160020   6.175   2.684   2.533
18391SOL    HW260021   6.069   2.587   2.485
18392SOL     OW60022   7.351   2.246   3.556
18392SOL    HW160023   7.360   2.263   3.462
18392SOL    HW260024   7.288   2.174   3.562
18393SOL     OW60025   7.339   2.853   3.365
18393SOL    HW160026   7.426   2.890   3.351
18393SOL    HW260027   7.319   2.807   3.283
18394SOL     OW60028   6.431   3.240   1.922
18394SOL    HW160029   6.514   3.225   1.966
18394SOL    HW260030   6.455   3.284   1.840
18395SOL     OW60031   6.274   3.764   2.792
18395SOL    HW160032   6.301   3.686   2.841
18395SOL    HW260033   6.331   3.765   2.715
18396SOL     OW60034   6.438   2.828   2.732
18396SOL    HW160035   6.443   2.738   2.766
18396SOL    HW260036   6.402   2.879   2.804
18397SOL     OW60037   6.645   2.833   1.913
18397SOL    HW160038   6.649   2.877   1.828
18397SOL    HW260039   6.720   2.773   1.914
18398SOL     OW60040   7.529   3.371   2.686
18398SOL    HW160041   7.573   3.353   2.602
18398SOL    HW260042   7.586   3.330   2.752
18399SOL     OW60043   5.790   3.145   3.698
18399SOL    HW160044   5.762   3.067   3.650
18399SOL    HW260045   5.729   3.150   3.772
18400SOL     OW60046   5.746   3.052   2.522
18400SOL    HW160047   5.771   3.010   2.604
18400SOL    HW260048   5.789   2.999   2.454
18401SOL     OW60049   6.253   3.295   3.477
18401SOL    HW160050   6.190   3.249   3.534
18401SOL    HW260051   6.284   3.368   3.530
18402SOL     OW60052   7.407   2.073   3.132
18402SOL    HW160053   7.483   2.062   3.190
18402SOL    HW260054   7.442   2.063   3.044
18403SOL     OW60055   6.026   2.263   2.390
18403SOL    HW160056   6.059   2.201   2.324
18403SOL    HW260057   5.970   2.211   2.447
18404SOL     OW60058   7.322   3.323   2.958
18404SOL    HW160059   7.329   3.257   2.890
18404SOL    HW260060   7.384   3.296   3.026
18405SOL     OW60061   5.934   2.422   3.126
18405SOL    HW160062   6.004   2.372   3.168
18405SOL    HW260063   5.948   2.408   3.033
18406SOL     OW60064   6.412   3.435   2.514
18406SOL    HW160065   6.416   3.461   2.422
18406SOL    HW260066   6.336   3.378   2.519
18407SOL     OW60067   6.975   2.028   3.049
18407SOL    HW160068   7.042   2.020   3.117
18407SOL    HW260069   6.939   2.116   3.061
18408SOL     OW60070   6.591   1.881   2.998
18408SOL    HW160071   6.528   1.812   2.978
18408SOL    HW260072   6.676   1.838   2.993
18409SOL     OW60073   6.374   3.172   2.289
18409SOL    HW160074   6.339   3.087   2.262
18409SOL    HW260075   6.466   3.155   2.307
18410SOL     OW60076   6.190   3.448   3.104
18410SOL    HW160077   6.191   3.533   3.147
18410SOL    HW260078   6.282   3.427   3.088
18411SOL     OW60079   6.930   1.909   2.034
18411SOL    HW160080   6.971   1.839   1.982
18411SOL    HW260081   6.845   1.872   2.059
18412SOL     OW60082   6.894   2.318   2.510
18412SOL    HW160083   6.856   2.406   2.517
18412SOL    HW260084   6.985   2.329   2.536
18413SOL     OW60085   7.091   2.085   2.739
18413SOL    HW160086   7.182   2.056   2.743
18413SOL    HW260087   7.090   2.151   2.670
18414SOL     OW60088   5.622   2.899   2.139
18414SOL    HW160089   5.710   2.874   2.110
18414SOL    HW260090   5.586   2.819   2.177
18415SOL     OW60091   6.458   3.469   2.219
18415SOL    HW160092   6.452   3.406   2.146
18415SOL    HW260093   6.541   3.513   2.205
18416SOL     OW60094   5.792   2.540   3.881
18416SOL    HW160095   5.715   2.500   3.923
18416SOL    HW260096   5.790   2.506   3.792
18417SOL     OW60097   5.792   2.176   4.733
18417SOL    HW160098   5.847   2.125   4.793
18417SOL    HW260099   5.709   2.129   4.731
18418SOL     OW60100   5.584   2.273   4.383
18418SOL    HW160101   5.509   2.269   4.442
18418SOL    HW260102   5.570   2.202   4.321
18419SOL     OW60103   6.192   3.142   4.955
18419SOL    HW160104   6.103   3.112   4.975
18419SOL    HW260105   6.183   3.237   4.943
18420SOL     OW60106   7.140   3.382   4.400
18420SOL    HW160107   7.099   3.349   4.479
18420SOL    HW260108   7.205   3.316   4.377
18421SOL     OW60109   6.703   2.544   4.384
18421SOL    HW160110   6.745   2.628   4.404
18421SOL    HW260111   6.667   2.515   4.468
18422SOL     OW60112   7.317   2.454   3.982
18422SOL    HW160113   7.323   2.457   3.887
18422SOL    HW260114   7.308   2.362   4.003
18423SOL     OW60115   6.324   2.977   4.776
18423SOL    HW160116   6.278   3.032   4.839
18423SOL    HW260117   6.416   3.002   4.786
18424SOL     OW60118   6.421   2.690   5.561
18424SOL    HW160119   6.480   2.623   5.595
18424SOL    HW260120   6.377   2.648   5.487
18425SOL     OW60121   6.272   2.864   4.351
18425SOL    HW160122   6.331   2.844   4.423
18425SOL    HW260123   6.209   2.925   4.389
18426SOL     OW60124   6.365   3.014   5.516
18426SOL    HW160125   6.373   3.102   5.555
18426SOL    HW260126   6.275   3.010   5.484
18427SOL     OW60127   5.852   3.412   4.758
18427SOL    HW160128   5.798   3.340   4.723
18427SOL    HW260129   5.927   3.416   4.699
18428SOL     OW60130   7.008   3.372   5.085
18428SOL    HW160131   7.072   3.443   5.092
18428SOL    HW260132   7.061   3.293   5.074
18429SOL     OW60133   5.998   2.293   5.263
18429SOL    HW160134   6.084   2.253   5.253
18429SOL    HW260135   5.937   2.226   5.230
18430SOL     OW60136   7.116   2.410   4.484
18430SOL    HW160137   7.045   2.363   4.440
18430SOL    HW260138   7.193   2.355   4.471
18431SOL     OW60139   5.813   3.587   4.205
18431SOL    HW160140   5.891   3.587   4.150
18431SOL    HW260141   5.803   3.496   4.234
18432SOL     OW60142   6.684   3.062   5.390
18432SOL    HW160143   6.766   3.066   5.439
18432SOL    HW260144   6.710   3.045   5.300
18433SOL     OW60145   5.752   3.333   4.301
18433SOL    HW160146   5.695   3.373   4.365
18433SOL    HW260147   5.758   3.241   4.327
18434SOL     OW60148   5.858   2.928   4.598
18434SOL    HW160149   5.868   2.834   4.591
18434SOL    HW260150   5.899   2.951   4.681
18435SOL     OW60151   6.155   3.627   5.120
18435SOL    HW160152   6.093   3.617   5.192
18435SOL    HW260153   6.241   3.620   5.162
18436SOL     OW60154   6.151   2.838   3.893
18436SOL    HW160155   6.193   2.874   3.815
18436SOL    HW260156   6.211   2.857   3.965
18437SOL     OW60157   7.113   2.005   5.101
18437SOL    HW160158   7.197   2.034   5.066
18437SOL    HW260159   7.112   2.036   5.191
18438SOL     OW60160   5.689   2.528   4.302
18438SOL    HW160161   5.664   2.438   4.322
18438SOL    HW260162   5.693   2.572   4.387
18439SOL     OW60163   7.425   3.598   4.085
18439SOL    HW160164   7.509   3.564   4.116
18439SOL    HW260165   7.445   3.685   4.050
18440SOL     OW60166   5.668   3.439   3.833
18440SOL    HW160167   5.643   3.348   3.849
18440SOL    HW260168   5.635   3.487   3.909
18441SOL     OW60169   7.313   2.746   4.394
18441SOL    HW160170   7.386   2.714   4.446
18441SOL    HW260171   7.337   2.727   4.304
18442SOL     OW60172   7.235   2.990   4.166
18442SOL    HW160173   7.320   2.947   4.159
18442SOL    HW260174   7.253   3.071   4.213
18443SOL     OW60175   5.734   2.654   5.283
18443SOL    HW160176   5.823   2.620   5.295
18443SOL    HW260177   5.734   2.736   5.333
18444SOL     OW60178   6.148   3.287   4.432
18444SOL    HW160179   6.120   3.196   4.441
18444SOL    HW260180   6.158   3.299   4.338
18445SOL     OW60181   6.824   3.047   5.151
18445SOL    HW160182   6.850   2.989   5.080
18445SOL    HW260183   6.901   3.052   5.207
18446SOL     OW60184   6.418   1.958   4.117
18446SOL    HW160185   6.452   1.871   4.095
18446SOL    HW260186   6.340   1.940   4.170
18447SOL     OW60187   5.766   2.832   4.995
18447SOL    HW160188   5.855   2.798   5.002
18447SOL    HW260189   5.722   2.773   4.933
18448SOL     OW60190   7.154   2.857   3.936
18448SOL    HW160191   7.140   2.769   3.971
18448SOL    HW260192   7.179   2.910   4.011
18449SOL     OW60193   6.662   3.675   5.279
18449SOL    HW160194   6.710   3.743   5.232
18449SOL    HW260195   6.722   3.600   5.281
18450SOL     OW60196   5.881   2.088   5.546
18450SOL    HW160197   5.963   2.046   5.518
18450SOL    HW260198   5.825   2.015   5.573
18451SOL     OW60199   6.979   3.291   4.621
18451SOL    HW160200   7.028   3.302   4.703
18451SOL    HW260201   7.000   3.201   4.593
18452SOL     OW60202   7.247   3.623   4.306
18452SOL    HW160203   7.303   3.599   4.233
18452SOL    HW260204   7.226   3.540   4.349
18453SOL     OW60205   6.143   2.564   3.984
18453SOL    HW160206   6.152   2.651   3.945
18453SOL    HW260207   6.078   2.575   4.053
18454SOL     OW60208   6.823   2.142   4.595
18454SOL    HW160209   6.773   2.066   4.564
18454SOL    HW260210   6.915   2.116   4.583
18455SOL     OW60211   7.147   3.557   4.010
18455SOL    HW160212   7.243   3.554   4.017
18455SOL    HW260213   7.130   3.549   3.916
18456SOL     OW60214   6.332   2.468   5.212
18456SOL    HW160215   6.334   2.422   5.296
18456SOL    HW260216   6.299   2.404   5.150
18457SOL     OW60217   6.964   2.273   5.400
18457SOL    HW160218   6.994   2.312   5.482
18457SOL    HW260219   7.022   2.198   5.386
18458SOL     OW60220   6.545   2.783   5.287
18458SOL    HW160221   6.580   2.701   5.252
18458SOL    HW260222   6.494   2.820   5.215
18459SOL     OW60223   6.630   2.251   4.870
18459SOL    HW160224   6.593   2.225   4.954
18459SOL    HW260225   6.580   2.200   4.805
18460SOL     OW60226   6.577   2.590   4.135
18460SOL    HW160227   6.620   2.571   4.218
18460SOL    HW260228   6.501   2.532   4.134
18461SOL     OW60229   5.670   2.705   4.528
18461SOL    HW160230   5.741   2.664   4.577
18461SOL    HW260231   5.667   2.795   4.560
18462SOL     OW60232   5.704   3.727   5.309
18462SOL    HW160233   5.701   3.719   5.405
18462SOL    HW260234   5.644   3.660   5.278
18463SOL     OW60235   6.396   2.199   3.968
18463SOL    HW160236   6.395   2.169   3.877
18463SOL    HW260237   6.408   2.118   4.019
18464SOL     OW60238   7.277   2.447   5.540
18464SOL    HW160239   7.275   2.524   5.485
18464SOL    HW260240   7.323   2.381   5.488
18465SOL     OW60241   6.956   2.951   4.193
18465SOL    HW160242   7.051   2.964   4.190
18465SOL    HW260243   6.919   3.036   4.171
18466SOL     OW60244   6.102   2.031   4.640
18466SOL    HW160245   6.138   2.063   4.723
18466SOL    HW260246   6.178   2.002   4.590
18467SOL     OW60247   6.597   3.318   4.204
18467SOL    HW160248   6.565   3.391   4.152
18467SOL    HW260249   6.637   3.358   4.281
18468SOL     OW60250   7.293   2.949   4.596
18468SOL    HW160251   7.308   2.884   4.528
18468SOL    HW260252   7.379   2.989   4.611
18469SOL     OW60253   6.828   3.444   5.286
18469SOL    HW160254   6.895   3.436   5.353
18469SOL    HW260255   6.871   3.415   5.205
18470SOL     OW60256   5.876   2.803   3.968
18470SOL    HW160257   5.966   2.815   3.938
18470SOL    HW260258   5.854   2.713   3.944
18471SOL     OW60259   7.069   2.679   4.500
18471SOL    HW160260   7.081   2.584   4.500
18471SOL    HW260261   7.152   2.715   4.470
18472SOL     OW60262   6.065   3.156   5.471
18472SOL    HW160263   6.031   3.157   5.381
18472SOL    HW260264   5.990   3.133   5.525
18473SOL     OW60265   6.698   3.644   3.926
18473SOL    HW160266   6.634   3.599   3.981
18473SOL    HW260267   6.734   3.575   3.870
18474SOL     OW60268   5.788   2.103   5.179
18474SOL    HW160269   5.708   2.112   5.127
18474SOL    HW260270   5.765   2.037   5.245
18475SOL     OW60271   7.259   3.173   3.800
18475SOL    HW160272   7.303   3.258   3.794
18475SOL    HW260273   7.315   3.114   3.749
18476SOL     OW60274   6.062   3.599   4.073
18476SOL    HW160275   6.107   3.552   4.143
18476SOL    HW260276   6.112   3.580   3.994
18477SOL     OW60277   7.028   1.937   4.152
18477SOL    HW160278   7.060   1.856   4.112
18477SOL    HW260279   7.103   1.972   4.200
18478SOL     OW60280   5.888   3.633   4.933
18478SOL    HW160281   5.964   3.612   4.988
18478SOL    HW260282   5.879   3.558   4.875
18479SOL     OW60283   6.556   3.518   4.558
18479SOL    HW160284   6.650   3.499   4.555
18479SOL    HW260285   6.515   3.434   4.580
18480SOL     OW60286   5.955   2.555   4.193
18480SOL    HW160287   5.979   2.463   4.203
18480SOL    HW260288   5.862   2.559   4.216
18481SOL     OW60289   7.143   2.061   5.381
18481SOL    HW160290   7.225   2.111   5.386
18481SOL    HW260291   7.168   1.973   5.408
18482SOL     OW60292   6.224   1.969   3.826
18482SOL    HW160293   6.247   1.882   3.859
18482SOL    HW260294   6.177   1.951   3.744
18483SOL     OW60295   6.395   2.111   5.471
18483SOL    HW160296   6.481   2.069   5.468
18483SOL    HW260297   6.348   2.064   5.540
18484SOL     OW60298   6.461   3.396   4.887
18484SOL    HW160299   6.459   3.353   4.802
18484SOL    HW260300   6.518   3.342   4.941
18485SOL     OW60301   6.872   2.458   5.215
18485SOL    HW160302   6.918   2.407   5.281
18485SOL    HW260303   6.929   2.534   5.199
18486SOL     OW60304   6.436   3.283   4.633
18486SOL    HW160305   6.522   3.243   4.623
18486SOL    HW260306   6.375   3.217   4.598
18487SOL     OW60307   6.568   2.373   4.577
18487SOL    HW160308   6.510   2.359   4.503
18487SOL    HW260309   6.591   2.285   4.606
18488SOL     OW60310   6.157   1.941   4.226
18488SOL    HW160311   6.080   1.932   4.281
18488SOL    HW260312   6.135   2.009   4.163
18489SOL     OW60313   7.021   3.044   3.776
18489SOL    HW160314   7.044   2.964   3.824
18489SOL    HW260315   7.097   3.101   3.787
18490SOL     OW60316   5.900   1.907   3.909
18490SOL    HW160317   5.969   1.967   3.880
18490SOL    HW260318   5.946   1.840   3.960
18491SOL     OW60319   6.569   2.155   4.246
18491SOL    HW160320   6.524   2.078   4.211
18491SOL    HW260321   6.658   2.149   4.212
18492SOL     OW60322   6.618   2.550   5.163
18492SOL    HW160323   6.558   2.481   5.190
18492SOL    HW260324   6.705   2.512   5.177
18493SOL     OW60325   6.834   3.506   4.518
18493SOL    HW160326   6.884   3.521   4.438
18493SOL    HW260327   6.879   3.433   4.561
18494SOL     OW60328   6.053   3.028   4.422
18494SOL    HW160329   5.996   2.990   4.489
18494SOL    HW260330   6.011   3.005   4.339
18495SOL     OW60331   6.990   3.712   4.390
18495SOL    HW160332   6.973   3.756   4.306
18495SOL    HW260333   7.079   3.677   4.381
18496SOL     OW60334   6.639   2.438   3.792
18496SOL    HW160335   6.642   2.413   3.700
18496SOL    HW260336   6.669   2.361   3.839
18497SOL     OW60337   5.708   2.461   5.085
18497SOL    HW160338   5.799   2.441   5.062
18497SOL    HW260339   5.715   2.528   5.153
18498SOL     OW60340   6.169   2.094   4.905
18498SOL    HW160341   6.224   2.032   4.954
18498SOL    HW260342   6.080   2.065   4.922
18499SOL     OW60343   6.396   2.330   4.366
18499SOL    HW160344   6.369   2.375   4.286
18499SOL    HW260345   6.453   2.259   4.335
18500SOL     OW60346   6.649   1.940   4.495
18500SOL    HW160347   6.700   1.919   4.416
18500SOL    HW260348   6.614   1.855   4.524
18501SOL     OW60349   7.038   3.040   4.545
18501SOL    HW160350   6.994   2.958   4.521
18501SOL    HW260351   7.129   3.014   4.559
18502SOL     OW60352   6.994   2.405   4.741
18502SOL    HW160353   7.036   2.397   4.656
18502SOL    HW260354   7.066   2.419   4.803
18503SOL     OW60355   7.424   2.636   4.161
18503SOL    HW160356   7.503   2.600   4.201
18503SOL    HW260357   7.398   2.570   4.097
18504SOL     OW60358   6.079   3.309   3.922
18504SOL    HW160359   5.995   3.272   3.950
18504SOL    HW260360   6.110   3.248   3.855
18505SOL     OW60361   7.333   3.200   4.329
18505SOL    HW160362   7.383   3.125   4.362
18505SOL    HW260363   7.400   3.263   4.300
18506SOL     OW60364   7.025   2.419   3.745
18506SOL    HW160365   7.029   2.333   3.786
18506SOL    HW260366   7.116   2.447   3.739
18507SOL     OW60367   6.096   2.123   4.026
18507SOL    HW160368   6.160   2.080   3.969
18507SOL    HW260369   6.066   2.199   3.976
18508SOL     OW60370   7.264   3.125   5.328
18508SOL    HW160371   7.321   3.048   5.327
18508SOL    HW260372   7.324   3.198   5.342
18509SOL     OW60373   6.646   3.224   5.038
18509SOL    HW160374   6.566   3.210   5.089
18509SOL    HW260375   6.712   3.169   5.082
18510SOL     OW60376   7.187   3.519   5.377
18510SOL    HW160377   7.186   3.544   5.285
18510SOL    HW260378   7.265   3.465   5.387
18511SOL     OW60379   6.572   3.073   4.818
18511SOL    HW160380   6.617   3.113   4.893
18511SOL    HW260381   6.634   3.083   4.745
18512SOL     OW60382   7.157   2.941   4.845
18512SOL    HW160383   7.185   3.018   4.893
18512SOL    HW260384   7.206   2.945   4.763
18513SOL     OW60385   6.489   2.063   5.057
18513SOL    HW160386   6.501   1.986   5.002
18513SOL    HW260387   6.565   2.064   5.115
18514SOL     OW60388   6.350   2.887   4.089
18514SOL    HW160389   6.322   2.876   4.180
18514SOL    HW260390   6.420   2.823   4.077
18515SOL     OW60391   6.013   2.713   5.005
18515SOL    HW160392   6.080   2.715   5.073
18515SOL    HW260393   5.995   2.620   4.993
18516SOL     OW60394   6.872   2.244   5.044
18516SOL    HW160395   6.877   2.320   5.101
18516SOL    HW260396   6.834   2.175   5.100
18517SOL     OW60397   5.677   3.443   5.104
18517SOL    HW160398   5.647   3.502   5.035
18517SOL    HW260399   5.770   3.431   5.087
18518SOL     OW60400   5.901   2.979   4.192
18518SOL    HW160401   5.900   3.052   4.131
18518SOL    HW260402   5.898   2.901   4.136
18519SOL     OW60403   6.208   2.422   4.556
18519SOL    HW160404   6.176   2.495   4.504
18519SOL    HW260405   6.264   2.372   4.496
18520SOL     OW60406   6.840   3.198   4.132
18520SOL    HW160407   6.893   3.277   4.147
18520SOL    HW260408   6.752   3.223   4.158
18521SOL     OW60409   6.802   3.410   4.910
18521SOL    HW160410   6.883   3.399   4.959
18521SOL    HW260411   6.744   3.342   4.944
18522SOL     OW60412   7.126   2.619   4.091
18522SOL    HW160413   7.160   2.625   4.180
18522SOL    HW260414   7.186   2.560   4.046
18523SOL     OW60415   5.934   3.350   5.020
18523SOL    HW160416   5.899   3.344   4.932
18523SOL    HW260417   6.026   3.373   5.008
18524SOL     OW60418   5.994   2.569   5.324
18524SOL    HW160419   6.069   2.613   5.285
18524SOL    HW260420   6.008   2.476   5.305
18525SOL     OW60421   7.215   2.685   5.407
18525SOL    HW160422   7.121   2.702   5.394
18525SOL    HW260423   7.258   2.732   5.335
18526SOL     OW60424   6.638   1.973   5.504
18526SOL    HW160425   6.684   1.918   5.440
18526SOL    HW260426   6.639   1.921   5.585
18527SOL     OW60427   6.075   1.906   5.465
18527SOL    HW160428   6.155   1.861   5.438
18527SOL    HW260429   6.004   1.856   5.425
18528SOL     OW60430   6.071   2.856   4.776
18528SOL    HW160431   6.163   2.879   4.769
18528SOL    HW260432   6.065   2.808   4.858
18529SOL     OW60433   6.915   2.682   4.741
18529SOL    HW160434   6.970   2.698   4.664
18529SOL    HW260435   6.922   2.588   4.757
18530SOL     OW60436   6.835   2.397   4.008
18530SOL    HW160437   6.820   2.316   4.057
18530SOL    HW260438   6.929   2.401   3.997
18531SOL     OW60439   5.904   2.018   4.939
18531SOL    HW160440   5.874   2.046   5.025
18531SOL    HW260441   5.897   1.923   4.940
18532SOL     OW60442   5.653   3.191   4.969
18532SOL    HW160443   5.663   3.116   5.027
18532SOL    HW260444   5.647   3.266   5.028
18533SOL     OW60445   6.382   2.464   4.768
18533SOL    HW160446   6.462   2.430   4.727
18533SOL    HW260447   6.315   2.452   4.701
18534SOL     OW60448   7.331   2.851   5.594
18534SOL    HW160449   7.293   2.787   5.534
18534SOL    HW260450   7.276   2.847   5.671
18535SOL     OW60451   5.911   1.928   4.360
18535SOL    HW160452   5.887   2.018   4.382
18535SOL    HW260453   5.914   1.882   4.444
18536SOL     OW60454   7.202   2.217   4.091
18536SOL    HW160455   7.252   2.137   4.109
18536SOL    HW260456   7.194   2.260   4.176
18537SOL     OW60457   6.603   3.333   5.409
18537SOL    HW160458   6.669   3.367   5.349
18537SOL    HW260459   6.611   3.238   5.402
18538SOL     OW60460   7.426   3.361   5.352
18538SOL    HW160461   7.463   3.388   5.267
18538SOL    HW260462   7.500   3.365   5.412
18539SOL     OW60463   5.952   2.746   5.544
18539SOL    HW160464   6.033   2.753   5.595
18539SOL    HW260465   5.970   2.678   5.480
18540SOL     OW60466   7.068   2.169   3.846
18540SOL    HW160467   7.023   2.084   3.857
18540SOL    HW260468   7.118   2.180   3.926
18541SOL     OW60469   6.867   2.650   3.721
18541SOL    HW160470   6.919   2.570   3.732
18541SOL    HW260471   6.907   2.694   3.647
18542SOL     OW60472   6.695   3.204   4.592
18542SOL    HW160473   6.689   3.123   4.542
18542SOL    HW260474   6.789   3.223   4.597
18543SOL     OW60475   5.900   2.659   4.665
18543SOL    HW160476   5.979   2.705   4.695
18543SOL    HW260477   5.922   2.566   4.673
18544SOL     OW60478   5.974   2.396   4.706
18544SOL    HW160479   5.931   2.311   4.697
18544SOL    HW260480   6.055   2.387   4.657
18545SOL     OW60481   6.698   2.240   5.457
18545SOL    HW160482   6.689   2.150   5.490
18545SOL    HW260483   6.791   2.249   5.438
18546SOL     OW60484   6.721   2.072   5.209
18546SOL    HW160485   6.706   2.119   5.291
18546SOL    HW260486   6.756   1.987   5.236
18547SOL     OW60487   5.604   3.167   3.905
18547SOL    HW160488   5.517   3.185   3.872
18547SOL    HW260489   5.599   3.078   3.942
18548SOL     OW60490   5.661   3.616   4.667
18548SOL    HW160491   5.629   3.551   4.605
18548SOL    HW260492   5.749   3.585   4.690
18549SOL     OW60493   6.095   3.474   4.628
18549SOL    HW160494   6.161   3.458   4.695
18549SOL    HW260495   6.115   3.411   4.559
18550SOL     OW60496   6.477   2.655   4.945
18550SOL    HW160497   6.537   2.612   5.006
18550SOL    HW260498   6.447   2.586   4.887
18551SOL     OW60499   5.634   2.407   4.819
18551SOL    HW160500   5.693   2.341   4.781
18551SOL    HW260501   5.670   2.423   4.906
18552SOL     OW60502   5.792   2.331   5.477
18552SOL    HW160503   5.827   2.244   5.497
18552SOL    HW260504   5.841   2.359   5.400
18553SOL     OW60505   6.934   2.779   5.409
18553SOL    HW160506   6.961   2.871   5.401
18553SOL    HW260507   6.933   2.747   5.318
18554SOL     OW60508   6.354   2.430   4.110
18554SOL    HW160509   6.373   2.349   4.063
18554SOL    HW260510   6.282   2.470   4.061
18555SOL     OW60511   7.209   2.443   4.902
18555SOL    HW160512   7.230   2.388   4.977
18555SOL    HW260513   7.293   2.453   4.855
18556SOL     OW60514   5.816   3.399   5.452
18556SOL    HW160515   5.785   3.410   5.542
18556SOL    HW260516   5.845   3.308   5.447
18557SOL     OW60517   6.223   2.356   4.974
18557SOL    HW160518   6.214   2.264   4.951
18557SOL    HW260519   6.284   2.392   4.909
18558SOL     OW60520   6.401   3.572   5.250
18558SOL    HW160521   6.414   3.477   5.253
18558SOL    HW260522   6.489   3.609   5.251
18559SOL     OW60523   6.009   2.343   3.877
18559SOL    HW160524   6.084   2.400   3.896
18559SOL    HW260525   5.932   2.398   3.892
18560SOL     OW60526   5.694   3.006   5.191
18560SOL    HW160527   5.710   2.962   5.275
18560SOL    HW260528   5.716   2.940   5.125
18561SOL     OW60529   6.905   2.878   4.942
18561SOL    HW160530   6.992   2.908   4.914
18561SOL    HW260531   6.881   2.812   4.877
18562SOL     OW60532   6.875   2.722   4.055
18562SOL    HW160533   6.959   2.677   4.068
18562SOL    HW260534   6.889   2.808   4.094
18563SOL     OW60535   7.300   3.587   4.851
18563SOL    HW160536   7.384   3.613   4.813
18563SOL    HW260537   7.295   3.493   4.835
18564SOL     OW60538   6.806   3.653   4.793
18564SOL    HW160539   6.900   3.670   4.803
18564SOL    HW260540   6.795   3.563   4.825
18565SOL     OW60541   5.647   3.206   4.693
18565SOL    HW160542   5.644   3.194   4.788
18565SOL    HW260543   5.618   3.123   4.658
18566SOL     OW60544   6.311   3.613   5.514
18566SOL    HW160545   6.235   3.664   5.484
18566SOL    HW260546   6.355   3.586   5.433
18567SOL     OW60547   7.287   1.990   4.244
18567SOL    HW160548   7.365   1.986   4.188
18567SOL    HW260549   7.277   1.901   4.277
18568SOL     OW60550   6.970   3.436   4.189
18568SOL    HW160551   7.022   3.481   4.122
18568SOL    HW260552   7.033   3.416   4.258
18569SOL     OW60553   5.711   3.684   5.579
18569SOL    HW160554   5.688   3.593   5.601
18569SOL    HW260555   5.776   3.709   5.644
18570SOL     OW60556   6.845   2.798   4.398
18570SOL    HW160557   6.921   2.751   4.432
18570SOL    HW260558   6.877   2.844   4.321
18571SOL     OW60559   6.398   3.199   5.140
18571SOL    HW160560   6.357   3.228   5.222
18571SOL    HW260561   6.327   3.161   5.089
18572SOL     OW60562   6.260   3.527   3.882
18572SOL    HW160563   6.292   3.530   3.792
18572SOL    HW260564   6.217   3.442   3.890
18573SOL     OW60565   7.173   3.595   5.103
18573SOL    HW160566   7.231   3.589   5.028
18573SOL    HW260567   7.150   3.687   5.108
18574SOL     OW60568   7.353   1.983   4.700
18574SOL    HW160569   7.431   1.929   4.691
18574SOL    HW260570   7.283   1.929   4.663
18575SOL     OW60571   5.843   2.181   4.446
18575SOL    HW160572   5.756   2.218   4.428
18575SOL    HW260573   5.845   2.172   4.542
18576SOL     OW60574   6.792   3.444   3.763
18576SOL    HW160575   6.807   3.357   3.801
18576SOL    HW260576   6.723   3.431   3.699
18577SOL     OW60577   6.395   2.875   5.074
18577SOL    HW160578   6.420   2.800   5.020
18577SOL    HW260579   6.432   2.951   5.029
18578SOL     OW60580   7.049   3.569   3.745
18578SOL    HW160581   6.972   3.514   3.734
18578SOL    HW260582   7.101   3.553   3.667
18579SOL     OW60583   5.913   3.181   5.242
18579SOL    HW160584   5.919   3.241   5.168
18579SOL    HW260585   5.841   3.122   5.220
18580SOL     OW60586   7.180   3.153   5.064
18580SOL    HW160587   7.191   3.122   5.154
18580SOL    HW260588   7.268   3.172   5.034
18581SOL     OW60589   6.640   2.962   4.485
18581SOL    HW160590   6.568   2.903   4.508
18581SOL    HW260591   6.709   2.905   4.452
18582SOL     OW60592   6.526   2.080   4.691
18582SOL    HW160593   6.549   2.049   4.603
18582SOL    HW260594   6.552   2.009   4.749
18583SOL     OW60595   6.201   3.344   4.166
18583SOL    HW160596   6.278   3.289   4.148
18583SOL    HW260597   6.146   3.334   4.089
18584SOL     OW60598   7.327   2.290   5.103
18584SOL    HW160599   7.404   2.347   5.095
18584SOL    HW260600   7.352   2.209   5.058
18585SOL     OW60601   5.842   3.220   4.051
18585SOL    HW160602   5.761   3.203   4.003
18585SOL    HW260603   5.813   3.265   4.130
18586SOL     OW60604   5.736   2.886   5.443
18586SOL    HW160605   5.656   2.870   5.493
18586SOL    HW260606   5.805   2.840   5.491
18587SOL     OW60607   6.265   2.171   5.230
18587SOL    HW160608   6.327   2.138   5.165
18587SOL    HW260609   6.302   2.144   5.314
18588SOL     OW60610   5.654   2.190   3.765
18588SOL    HW160611   5.579   2.169   3.708
18588SOL    HW260612   5.690   2.271   3.729
18589SOL     OW60613   6.983   2.708   5.152
18589SOL    HW160614   6.935   2.758   5.087
18589SOL    HW260615   7.071   2.698   5.114
18590SOL     OW60616   5.660   2.014   3.990
18590SOL    HW160617   5.646   2.074   3.916
18590SOL    HW260618   5.748   1.979   3.976
18591SOL     OW60619   6.801   3.190   3.858
18591SOL    HW160620   6.868   3.133   3.821
18591SOL    HW260621   6.813   3.182   3.953
18592SOL     OW60622   6.207   2.707   5.198
18592SOL    HW160623   6.268   2.774   5.166
18592SOL    HW260624   6.259   2.626   5.199
18593SOL     OW60625   7.072   3.701   4.740
18593SOL    HW160626   7.113   3.757   4.674
18593SOL    HW260627   7.144   3.653   4.779
18594SOL     OW60628   6.359   2.387   5.475
18594SOL    HW160629   6.440   2.414   5.517
18594SOL    HW260630   6.361   2.291   5.478
18595SOL     OW60631   7.002   3.053   5.374
18595SOL    HW160632   7.003   3.049   5.470
18595SOL    HW260633   7.090   3.079   5.350
18596SOL     OW60634   5.953   3.602   5.312
18596SOL    HW160635   5.869   3.645   5.294
18596SOL    HW260636   5.929   3.520   5.355
18597SOL     OW60637   7.206   2.706   4.996
18597SOL    HW160638   7.218   2.620   4.956
18597SOL    HW260639   7.198   2.767   4.922
18598SOL     OW60640   6.843   2.162   4.156
18598SOL    HW160641   6.899   2.084   4.156
18598SOL    HW260642   6.865   2.207   4.238
18599SOL     OW60643   6.121   2.633   4.403
18599SOL    HW160644   6.177   2.703   4.370
18599SOL    HW260645   6.066   2.608   4.329
18600SOL     OW60646   7.359   2.231   5.370
18600SOL    HW160647   7.341   2.262   5.282
18600SOL    HW260648   7.444   2.187   5.363
18601SOL     OW60649   7.307   2.850   5.207
18601SOL    HW160650   7.394   2.883   5.185
18601SOL    HW260651   7.281   2.798   5.131
18602SOL     OW60652   6.366   3.240   3.809
18602SOL    HW160653   6.382   3.218   3.901
18602SOL    HW260654   6.452   3.268   3.776
18603SOL     OW60655   6.346   3.665   4.670
18603SOL    HW160656   6.392   3.688   4.751
18603SOL    HW260657   6.410   3.614   4.620
18604SOL     OW60658   6.423   2.807   4.576
18604SOL    HW160659   6.442   2.719   4.611
18604SOL    HW260660   6.388   2.855   4.651
18605SOL     OW60661   6.632   2.761   3.800
18605SOL    HW160662   6.609   2.844   3.758
18605SOL    HW260663   6.714   2.734   3.759
18606SOL     OW60664   7.478   3.393   4.579
18606SOL    HW160665   7.505   3.383   4.488
18606SOL    HW260666   7.507   3.312   4.622
18607SOL     OW60667   5.802   3.132   5.556
18607SOL    HW160668   5.781   3.052   5.508
18607SOL    HW260669   5.735   3.137   5.625
18608SOL     OW60670   5.728   3.071   4.387
18608SOL    HW160671   5.753   3.028   4.469
18608SOL    HW260672   5.777   3.024   4.320
18609SOL     OW60673   6.281   3.301   5.369
18609SOL    HW160674   6.203   3.257   5.404
18609SOL    HW260675   6.339   3.311   5.445
18610SOL     OW60676   7.356   2.048   4.973
18610SOL    HW160677   7.398   1.965   4.995
18610SOL    HW260678   7.349   2.047   4.878
18611SOL     OW60679   5.997   2.292   4.234
18611SOL    HW160680   6.038   2.225   4.180
18611SOL    HW260681   5.960   2.245   4.309
18612SOL     OW60682   7.283   3.319   4.802
18612SOL    HW160683   7.332   3.305   4.721
18612SOL    HW260684   7.333   3.273   4.869
18613SOL     OW60685   5.961   2.445   4.976
18613SOL    HW160686   6.043   2.406   5.006
18613SOL    HW260687   5.959   2.427   4.882
18614SOL     OW60688   6.270   3.559   4.384
18614SOL    HW160689   6.349   3.585   4.338
18614SOL    HW260690   6.263   3.464   4.369
18615SOL     OW60691   6.983   2.032   4.856
18615SOL    HW160692   6.962   1.941   4.835
18615SOL    HW260693   7.024   2.028   4.942
18616SOL     OW60694   6.637   1.864   4.827
18616SOL    HW160695   6.604   1.788   4.779
18616SOL    HW260696   6.731   1.848   4.836
18617SOL     OW60697   6.395   3.168   4.075
18617SOL    HW160698   6.389   3.073   4.080
18617SOL    HW260699   6.477   3.189   4.122
18618SOL     OW60700   6.192   3.424   4.939
18618SOL    HW160701   6.187   3.500   4.997
18618SOL    HW260702   6.285   3.413   4.921
18619SOL     OW60703   6.962   1.915   3.879
18619SOL    HW160704   7.024   1.842   3.879
18619SOL    HW260705   6.945   1.932   3.972
18620SOL     OW60706   6.875   2.316   4.381
18620SOL    HW160707   6.813   2.389   4.372
18620SOL    HW260708   6.842   2.266   4.456
18621SOL     OW60709   7.098   2.126   4.595
18621SOL    HW160710   7.124   2.088   4.679
18621SOL    HW260711   7.180   2.145   4.550
18622SOL     OW60712   5.617   2.906   4.010
18622SOL    HW160713   5.707   2.884   3.984
18622SOL    HW260714   5.586   2.828   4.056
18623SOL     OW60715   6.482   3.534   4.072
18623SOL    HW160716   6.408   3.528   4.012
18623SOL    HW260717   6.464   3.612   4.124
18624SOL     OW60718   5.837   2.353   5.758
18624SOL    HW160719   5.765   2.298   5.788
18624SOL    HW260720   5.821   2.364   5.664
18625SOL     OW60721   5.834   2.169   6.611
18625SOL    HW160722   5.882   2.105   6.664
18625SOL    HW260723   5.753   2.123   6.587
18626SOL     OW60724   5.580   2.285   6.229
18626SOL    HW160725   5.499   2.311   6.273
18626SOL    HW260726   5.557   2.206   6.181
18627SOL     OW60727   6.043   3.122   6.761
18627SOL    HW160728   6.075   3.039   6.724
18627SOL    HW260729   6.030   3.104   6.854
18628SOL     OW60730   7.135   3.367   6.254
18628SOL    HW160731   7.092   3.336   6.334
18628SOL    HW260732   7.205   3.304   6.239
18629SOL     OW60733   6.738   2.594   6.279
18629SOL    HW160734   6.790   2.673   6.267
18629SOL    HW260735   6.693   2.607   6.363
18630SOL     OW60736   7.332   2.449   5.811
18630SOL    HW160737   7.312   2.464   5.718
18630SOL    HW260738   7.407   2.390   5.810
18631SOL     OW60739   6.453   3.009   6.661
18631SOL    HW160740   6.404   3.000   6.742
18631SOL    HW260741   6.418   3.089   6.621
18632SOL     OW60742   6.364   2.727   7.426
18632SOL    HW160743   6.392   2.657   7.485
18632SOL    HW260744   6.400   2.703   7.341
18633SOL     OW60745   6.277   2.892   6.215
18633SOL    HW160746   6.342   2.870   6.283
18633SOL    HW260747   6.212   2.945   6.261
18634SOL     OW60748   6.337   3.077   7.313
18634SOL    HW160749   6.363   3.132   7.387
18634SOL    HW260750   6.242   3.075   7.317
18635SOL     OW60751   5.941   3.357   6.655
18635SOL    HW160752   5.972   3.268   6.670
18635SOL    HW260753   5.992   3.388   6.581
18636SOL     OW60754   7.050   3.359   6.988
18636SOL    HW160755   7.099   3.440   6.974
18636SOL    HW260756   7.108   3.305   7.042
18637SOL     OW60757   6.032   2.274   7.110
18637SOL    HW160758   6.123   2.247   7.099
18637SOL    HW260759   5.987   2.196   7.143
18638SOL     OW60760   7.180   2.385   6.375
18638SOL    HW160761   7.104   2.327   6.374
18638SOL    HW260762   7.246   2.339   6.323
18639SOL     OW60763   5.778   3.610   6.055
18639SOL    HW160764   5.815   3.672   6.117
18639SOL    HW260765   5.853   3.571   6.012
18640SOL     OW60766   6.707   3.183   7.274
18640SOL    HW160767   6.772   3.159   7.341
18640SOL    HW260768   6.665   3.100   7.251
18641SOL     OW60769   5.787   3.322   6.119
18641SOL    HW160770   5.750   3.402   6.156
18641SOL    HW260771   5.758   3.253   6.179
18642SOL     OW60772   5.824   2.912   6.574
18642SOL    HW160773   5.840   2.825   6.536
18642SOL    HW260774   5.909   2.938   6.611
18643SOL     OW60775   6.155   3.525   6.984
18643SOL    HW160776   6.110   3.540   7.067
18643SOL    HW260777   6.210   3.602   6.972
18644SOL     OW60778   6.178   2.767   5.729
18644SOL    HW160779   6.258   2.744   5.681
18644SOL    HW260780   6.207   2.833   5.793
18645SOL     OW60781   7.205   1.862   7.057
18645SOL    HW160782   7.253   1.845   6.976
18645SOL    HW260783   7.138   1.925   7.032
18646SOL     OW60784   5.704   2.515   6.143
18646SOL    HW160785   5.667   2.427   6.148
18646SOL    HW260786   5.685   2.554   6.228
18647SOL     OW60787   7.442   3.640   5.941
18647SOL    HW160788   7.525   3.597   5.964
18647SOL    HW260789   7.468   3.710   5.881
18648SOL     OW60790   5.668   3.432   5.689
18648SOL    HW160791   5.649   3.340   5.705
18648SOL    HW260792   5.624   3.479   5.759
18649SOL     OW60793   7.321   2.738   6.240
18649SOL    HW160794   7.385   2.684   6.288
18649SOL    HW260795   7.340   2.721   6.148
18650SOL     OW60796   7.233   3.006   6.005
18650SOL    HW160797   7.317   2.970   5.976
18650SOL    HW260798   7.255   3.066   6.076
18651SOL     OW60799   5.714   2.616   7.157
18651SOL    HW160800   5.807   2.638   7.156
18651SOL    HW260801   5.708   2.540   7.215
18652SOL     OW60802   6.196   3.271   6.293
18652SOL    HW160803   6.150   3.188   6.311
18652SOL    HW260804   6.182   3.286   6.199
18653SOL     OW60805   6.863   3.106   6.988
18653SOL    HW160806   6.884   3.028   6.936
18653SOL    HW260807   6.920   3.100   7.064
18654SOL     OW60808   6.423   1.930   6.103
18654SOL    HW160809   6.466   1.927   6.188
18654SOL    HW260810   6.330   1.939   6.124
18655SOL     OW60811   5.693   2.780   6.822
18655SOL    HW160812   5.787   2.765   6.821
18655SOL    HW260813   5.655   2.694   6.838
18656SOL     OW60814   7.132   2.843   5.799
18656SOL    HW160815   7.112   2.756   5.834
18656SOL    HW260816   7.164   2.893   5.875
18657SOL     OW60817   6.684   3.658   7.148
18657SOL    HW160818   6.728   3.735   7.111
18657SOL    HW260819   6.750   3.589   7.148
18658SOL     OW60820   5.830   2.109   7.365
18658SOL    HW160821   5.921   2.079   7.361
18658SOL    HW260822   5.779   2.029   7.378
18659SOL     OW60823   6.957   3.313   6.475
18659SOL    HW160824   6.945   3.316   6.570
18659SOL    HW260825   6.969   3.220   6.455
18660SOL     OW60826   7.299   3.609   6.170
18660SOL    HW160827   7.347   3.607   6.087
18660SOL    HW260828   7.348   3.549   6.227
18661SOL     OW60829   6.113   2.519   5.858
18661SOL    HW160830   6.132   2.598   5.807
18661SOL    HW260831   6.066   2.551   5.936
18662SOL     OW60832   6.855   2.248   6.527
18662SOL    HW160833   6.775   2.196   6.534
18662SOL    HW260834   6.922   2.194   6.570
18663SOL     OW60835   7.196   3.504   5.841
18663SOL    HW160836   7.288   3.530   5.849
18663SOL    HW260837   7.169   3.536   5.755
18664SOL     OW60838   6.285   2.494   7.077
18664SOL    HW160839   6.312   2.443   7.153
18664SOL    HW260840   6.269   2.428   7.009
18665SOL     OW60841   6.971   2.338   7.255
18665SOL    HW160842   6.978   2.382   7.340
18665SOL    HW260843   7.023   2.258   7.265
18666SOL     OW60844   6.482   2.683   7.156
18666SOL    HW160845   6.557   2.639   7.117
18666SOL    HW260846   6.409   2.622   7.145
18667SOL     OW60847   6.492   2.279   6.778
18667SOL    HW160848   6.479   2.201   6.833
18667SOL    HW260849   6.534   2.245   6.699
18668SOL     OW60850   6.619   2.571   6.031
18668SOL    HW160851   6.658   2.564   6.117
18668SOL    HW260852   6.551   2.503   6.030
18669SOL     OW60853   5.644   2.611   6.397
18669SOL    HW160854   5.733   2.635   6.423
18669SOL    HW260855   5.615   2.550   6.465
18670SOL     OW60856   5.706   3.752   7.175
18670SOL    HW160857   5.712   3.740   7.269
18670SOL    HW260858   5.640   3.689   7.147
18671SOL     OW60859   6.482   2.290   5.799
18671SOL    HW160860   6.544   2.279   5.727
18671SOL    HW260861   6.513   2.232   5.868
18672SOL     OW60862   7.241   2.442   7.436
18672SOL    HW160863   7.246   2.520   7.381
18672SOL    HW260864   7.276   2.372   7.381
18673SOL     OW60865   6.965   2.997   6.082
18673SOL    HW160866   7.055   2.994   6.049
18673SOL    HW260867   6.920   3.059   6.025
18674SOL     OW60868   6.167   2.125   6.511
18674SOL    HW160869   6.181   2.107   6.604
18674SOL    HW260870   6.163   2.038   6.471
18675SOL     OW60871   6.595   3.290   6.089
18675SOL    HW160872   6.554   3.374   6.068
18675SOL    HW260873   6.602   3.290   6.184
18676SOL     OW60874   5.932   3.692   6.479
18676SOL    HW160875   5.988   3.615   6.473
18676SOL    HW260876   5.992   3.765   6.495
18677SOL     OW60877   7.246   2.957   6.390
18677SOL    HW160878   7.276   2.883   6.336
18677SOL    HW260879   7.259   2.928   6.480
18678SOL     OW60880   6.812   3.413   7.130
18678SOL    HW160881   6.789   3.327   7.166
18678SOL    HW260882   6.889   3.396   7.076
18679SOL     OW60883   5.892   2.811   5.875
18679SOL    HW160884   5.960   2.797   5.810
18679SOL    HW260885   5.835   2.735   5.866
18680SOL     OW60886   7.086   2.655   6.354
18680SOL    HW160887   7.100   2.560   6.362
18680SOL    HW260888   7.163   2.688   6.309
18681SOL     OW60889   6.069   3.144   7.285
18681SOL    HW160890   6.040   3.122   7.197
18681SOL    HW260891   5.992   3.131   7.340
18682SOL     OW60892   6.691   3.619   5.806
18682SOL    HW160893   6.645   3.566   5.871
18682SOL    HW260894   6.715   3.557   5.738
18683SOL     OW60895   7.151   3.232   5.680
18683SOL    HW160896   7.177   3.300   5.742
18683SOL    HW260897   7.233   3.188   5.657
18684SOL     OW60898   6.069   3.583   5.947
18684SOL    HW160899   6.084   3.505   6.000
18684SOL    HW260900   6.132   3.576   5.875
18685SOL     OW60901   7.035   1.886   6.031
18685SOL    HW160902   7.069   1.816   5.975
18685SOL    HW260903   7.079   1.873   6.115
18686SOL     OW60904   5.854   3.633   6.801
18686SOL    HW160905   5.877   3.562   6.860
18686SOL    HW260906   5.864   3.596   6.713
18687SOL     OW60907   6.540   3.542   6.499
18687SOL    HW160908   6.620   3.491   6.514
18687SOL    HW260909   6.498   3.500   6.424
18688SOL     OW60910   5.976   2.517   6.097
18688SOL    HW160911   5.997   2.425   6.113
18688SOL    HW260912   5.881   2.523   6.107
18689SOL     OW60913   7.086   2.096   7.326
18689SOL    HW160914   7.073   2.114   7.419
18689SOL    HW260915   7.086   2.000   7.319
18690SOL     OW60916   6.265   1.958   5.660
18690SOL    HW160917   6.300   1.872   5.686
18690SOL    HW260918   6.190   1.937   5.604
18691SOL     OW60919   6.397   2.107   7.345
18691SOL    HW160920   6.481   2.061   7.343
18691SOL    HW260921   6.341   2.054   7.402
18692SOL     OW60922   6.404   3.315   6.782
18692SOL    HW160923   6.399   3.301   6.687
18692SOL    HW260924   6.494   3.290   6.805
18693SOL     OW60925   6.905   2.495   7.038
18693SOL    HW160926   6.939   2.446   7.113
18693SOL    HW260927   6.968   2.565   7.025
18694SOL     OW60928   6.401   3.243   6.511
18694SOL    HW160929   6.485   3.248   6.465
18694SOL    HW260930   6.336   3.241   6.441
18695SOL     OW60931   6.520   2.377   6.470
18695SOL    HW160932   6.492   2.367   6.379
18695SOL    HW260933   6.553   2.290   6.495
18696SOL     OW60934   6.116   1.971   6.089
18696SOL    HW160935   6.050   1.947   6.154
18696SOL    HW260936   6.116   1.898   6.027
18697SOL     OW60937   6.985   3.016   5.645
18697SOL    HW160938   7.032   2.947   5.691
18697SOL    HW260939   7.033   3.096   5.666
18698SOL     OW60940   5.895   1.897   5.823
18698SOL    HW160941   5.985   1.865   5.826
18698SOL    HW260942   5.853   1.857   5.901
18699SOL     OW60943   6.565   2.159   6.029
18699SOL    HW160944   6.526   2.073   6.043
18699SOL    HW260945   6.659   2.146   6.039
18700SOL     OW60946   6.635   2.520   6.986
18700SOL    HW160947   6.611   2.430   6.964
18700SOL    HW260948   6.729   2.516   7.003
18701SOL     OW60949   6.931   3.565   6.365
18701SOL    HW160950   6.942   3.475   6.396
18701SOL    HW260951   6.904   3.614   6.442
18702SOL     OW60952   6.055   3.033   6.312
18702SOL    HW160953   6.019   2.968   6.373
18702SOL    HW260954   6.003   3.021   6.232
18703SOL     OW60955   6.608   2.477   5.563
18703SOL    HW160956   6.637   2.397   5.519
18703SOL    HW260957   6.689   2.523   5.586
18704SOL     OW60958   5.696   2.481   6.911
18704SOL    HW160959   5.787   2.454   6.904
18704SOL    HW260960   5.688   2.514   7.001
18705SOL     OW60961   6.182   2.069   6.783
18705SOL    HW160962   6.240   2.008   6.829
18705SOL    HW260963   6.097   2.025   6.782
18706SOL     OW60964   6.432   2.337   6.211
18706SOL    HW160965   6.392   2.385   6.139
18706SOL    HW260966   6.479   2.265   6.169
18707SOL     OW60967   6.584   1.943   6.331
18707SOL    HW160968   6.671   1.935   6.294
18707SOL    HW260969   6.577   1.871   6.394
18708SOL     OW60970   6.991   3.053   6.421
18708SOL    HW160971   6.942   2.984   6.376
18708SOL    HW260972   7.082   3.025   6.414
18709SOL     OW60973   6.964   2.461   6.664
18709SOL    HW160974   6.926   2.396   6.605
18709SOL    HW260975   7.052   2.430   6.681
18710SOL     OW60976   7.411   2.655   5.990
18710SOL    HW160977   7.473   2.610   6.048
18710SOL    HW260978   7.398   2.595   5.917
18711SOL     OW60979   6.091   3.302   5.757
18711SOL    HW160980   6.008   3.261   5.784
18711SOL    HW260981   6.117   3.252   5.679
18712SOL     OW60982   7.310   3.161   6.223
18712SOL    HW160983   7.288   3.093   6.286
18712SOL    HW260984   7.405   3.155   6.213
18713SOL     OW60985   7.031   2.391   5.640
18713SOL    HW160986   7.042   2.316   5.699
18713SOL    HW260987   7.120   2.415   5.614
18714SOL     OW60988   6.177   2.124   5.858
18714SOL    HW160989   6.220   2.076   5.787
18714SOL    HW260990   6.181   2.064   5.933
18715SOL     OW60991   7.297   3.168   7.143
18715SOL    HW160992   7.359   3.101   7.114
18715SOL    HW260993   7.352   3.241   7.172
18716SOL     OW60994   6.622   3.236   6.942
18716SOL    HW160995   6.565   3.174   6.987
18716SOL    HW260996   6.710   3.199   6.952
18717SOL     OW60997   7.237   3.533   7.263
18717SOL    HW160998   7.210   3.563   7.176
18717SOL    HW260999   7.314   3.478   7.247
18718SOL     OW61000   6.733   3.064   6.658
18718SOL    HW161001   6.642   3.037   6.671
18718SOL    HW261002   6.752   3.041   6.567
18719SOL     OW61003   7.235   2.875   6.650
18719SOL    HW161004   7.218   2.945   6.713
18719SOL    HW261005   7.156   2.822   6.650
18720SOL     OW61006   6.466   2.037   6.914
18720SOL    HW161007   6.504   1.976   6.851
18720SOL    HW261008   6.539   2.058   6.974
18721SOL     OW61009   6.571   2.935   7.274
18721SOL    HW161010   6.483   2.966   7.296
18721SOL    HW261011   6.558   2.846   7.241
18722SOL     OW61012   6.288   2.945   5.942
18722SOL    HW161013   6.274   2.928   6.035
18722SOL    HW261014   6.362   2.888   5.918
18723SOL     OW61015   5.959   2.705   6.840
18723SOL    HW161016   6.031   2.725   6.901
18723SOL    HW261017   5.952   2.610   6.842
18724SOL     OW61018   6.836   2.284   6.879
18724SOL    HW161019   6.872   2.354   6.933
18724SOL    HW261020   6.845   2.317   6.789
18725SOL     OW61021   5.642   3.380   6.940
18725SOL    HW161022   5.615   3.455   6.885
18725SOL    HW261023   5.737   3.382   6.938
18726SOL     OW61024   5.898   3.000   6.084
18726SOL    HW161025   5.907   3.068   6.016
18726SOL    HW261026   5.904   2.918   6.036
18727SOL     OW61027   6.177   2.389   6.451
18727SOL    HW161028   6.236   2.398   6.377
18727SOL    HW261029   6.175   2.295   6.469
18728SOL     OW61030   6.827   3.214   5.960
18728SOL    HW161031   6.884   3.289   5.974
18728SOL    HW261032   6.749   3.233   6.012
18729SOL     OW61033   6.881   3.311   6.743
18729SOL    HW161034   6.924   3.307   6.828
18729SOL    HW261035   6.832   3.229   6.737
18730SOL     OW61036   7.105   2.592   5.911
18730SOL    HW161037   7.073   2.525   5.971
18730SOL    HW261038   7.185   2.555   5.874
18731SOL     OW61039   5.917   3.389   6.922
18731SOL    HW161040   5.929   3.364   6.830
18731SOL    HW261041   6.003   3.421   6.949
18732SOL     OW61042   5.991   2.629   7.178
18732SOL    HW161043   6.057   2.668   7.121
18732SOL    HW261044   6.019   2.538   7.190
18733SOL     OW61045   7.216   2.665   7.272
18733SOL    HW161046   7.124   2.684   7.256
18733SOL    HW261047   7.260   2.684   7.189
18734SOL     OW61048   6.645   1.975   7.362
18734SOL    HW161049   6.661   1.918   7.287
18734SOL    HW261050   6.667   1.922   7.438
18735SOL     OW61051   6.016   1.883   7.350
18735SOL    HW161052   6.029   1.830   7.271
18735SOL    HW261053   5.976   1.822   7.413
18736SOL     OW61054   6.097   2.870   6.661
18736SOL    HW161055   6.165   2.822   6.615
18736SOL    HW261056   6.053   2.804   6.714
18737SOL     OW61057   7.003   2.726   6.613
18737SOL    HW161058   7.025   2.714   6.521
18737SOL    HW261059   6.980   2.638   6.644
18738SOL     OW61060   5.930   1.956   6.773
18738SOL    HW161061   5.936   1.912   6.858
18738SOL    HW261062   5.906   1.887   6.711
18739SOL     OW61063   5.642   3.106   6.823
18739SOL    HW161064   5.671   3.064   6.903
18739SOL    HW261065   5.620   3.196   6.849
18740SOL     OW61066   6.346   2.523   6.632
18740SOL    HW161067   6.412   2.464   6.596
18740SOL    HW261068   6.263   2.492   6.595
18741SOL     OW61069   7.348   2.839   7.442
18741SOL    HW161070   7.306   2.771   7.389
18741SOL    HW261071   7.290   2.849   7.518
18742SOL     OW61072   5.899   1.945   6.269
18742SOL    HW161073   5.875   2.036   6.288
18742SOL    HW261074   5.851   1.894   6.334
18743SOL     OW61075   7.170   2.320   6.000
18743SOL    HW161076   7.223   2.265   6.058
18743SOL    HW261077   7.232   2.358   5.938
18744SOL     OW61078   6.605   2.635   6.516
18744SOL    HW161079   6.606   2.651   6.610
18744SOL    HW261080   6.580   2.543   6.507
18745SOL     OW61081   6.578   3.421   7.319
18745SOL    HW161082   6.606   3.464   7.238
18745SOL    HW261083   6.606   3.330   7.308
18746SOL     OW61084   7.458   3.394   7.187
18746SOL    HW161085   7.497   3.403   7.100
18746SOL    HW261086   7.533   3.390   7.246
18747SOL     OW61087   5.940   2.833   7.363
18747SOL    HW161088   6.013   2.843   7.424
18747SOL    HW261089   5.965   2.758   7.308
18748SOL     OW61090   7.080   2.134   5.755
18748SOL    HW161091   7.016   2.070   5.722
18748SOL    HW261092   7.162   2.110   5.711
18749SOL     OW61093   6.851   2.600   5.608
18749SOL    HW161094   6.918   2.533   5.620
18749SOL    HW261095   6.887   2.658   5.542
18750SOL     OW61096   6.651   3.254   6.373
18750SOL    HW161097   6.655   3.159   6.368
18750SOL    HW261098   6.741   3.282   6.388
18751SOL     OW61099   5.899   2.669   6.480
18751SOL    HW161100   5.966   2.675   6.412
18751SOL    HW261101   5.915   2.585   6.523
18752SOL     OW61102   5.935   2.418   6.581
18752SOL    HW161103   5.909   2.328   6.601
18752SOL    HW261104   6.020   2.409   6.538
18753SOL     OW61105   6.713   2.243   7.311
18753SOL    HW161106   6.707   2.150   7.334
18753SOL    HW261107   6.806   2.257   7.294
18754SOL     OW61108   6.681   2.131   7.049
18754SOL    HW161109   6.688   2.179   7.132
18754SOL    HW261110   6.742   2.174   6.990
18755SOL     OW61111   5.612   3.164   5.759
18755SOL    HW161112   5.523   3.191   5.739
18755SOL    HW261113   5.603   3.078   5.800
18756SOL     OW61114   5.665   3.645   6.541
18756SOL    HW161115   5.631   3.569   6.494
18756SOL    HW261116   5.758   3.647   6.519
18757SOL     OW61117   6.096   3.474   6.458
18757SOL    HW161118   6.173   3.526   6.484
18757SOL    HW261119   6.131   3.407   6.400
18758SOL     OW61120   6.516   2.673   6.787
18758SOL    HW161121   6.561   2.616   6.850
18758SOL    HW261122   6.451   2.616   6.745
18759SOL     OW61123   5.650   2.466   6.642
18759SOL    HW161124   5.732   2.429   6.609
18759SOL    HW261125   5.661   2.469   6.737
18760SOL     OW61126   5.737   2.378   7.297
18760SOL    HW161127   5.796   2.304   7.310
18760SOL    HW261128   5.657   2.339   7.263
18761SOL     OW61129   6.954   2.813   7.243
18761SOL    HW161130   6.979   2.905   7.233
18761SOL    HW261131   6.966   2.776   7.155
18762SOL     OW61132   6.359   2.455   5.974
18762SOL    HW161133   6.402   2.398   5.910
18762SOL    HW261134   6.277   2.481   5.931
18763SOL     OW61135   7.225   2.355   6.708
18763SOL    HW161136   7.259   2.357   6.797
18763SOL    HW261137   7.172   2.275   6.704
18764SOL     OW61138   5.803   3.401   7.327
18764SOL    HW161139   5.764   3.430   7.409
18764SOL    HW261140   5.833   3.312   7.345
18765SOL     OW61141   6.223   2.338   6.839
18765SOL    HW161142   6.203   2.245   6.830
18765SOL    HW261143   6.312   2.347   6.806
18766SOL     OW61144   6.511   3.479   7.026
18766SOL    HW161145   6.575   3.415   6.996
18766SOL    HW261146   6.562   3.554   7.055
18767SOL     OW61147   5.714   2.979   7.061
18767SOL    HW161148   5.715   2.955   7.154
18767SOL    HW261149   5.706   2.895   7.015
18768SOL     OW61150   6.907   2.898   6.805
18768SOL    HW161151   6.938   2.835   6.740
18768SOL    HW261152   6.846   2.954   6.757
18769SOL     OW61153   6.749   2.721   5.833
18769SOL    HW161154   6.729   2.662   5.906
18769SOL    HW261155   6.800   2.668   5.773
18770SOL     OW61156   7.344   3.646   6.714
18770SOL    HW161157   7.407   3.665   6.644
18770SOL    HW261158   7.332   3.551   6.711
18771SOL     OW61159   6.842   3.576   6.658
18771SOL    HW161160   6.930   3.615   6.657
18771SOL    HW261161   6.856   3.488   6.691
18772SOL     OW61162   6.346   3.549   7.382
18772SOL    HW161163   6.372   3.636   7.352
18772SOL    HW261164   6.426   3.496   7.375
18773SOL     OW61165   7.236   2.093   6.132
18773SOL    HW161166   7.290   2.023   6.095
18773SOL    HW261167   7.219   2.066   6.222
18774SOL     OW61168   7.007   3.421   6.017
18774SOL    HW161169   7.057   3.364   6.075
18774SOL    HW261170   7.067   3.442   5.945
18775SOL     OW61171   5.723   3.702   7.443
18775SOL    HW161172   5.695   3.617   7.477
18775SOL    HW261173   5.782   3.737   7.510
18776SOL     OW61174   6.885   2.831   6.281
18776SOL    HW161175   6.957   2.771   6.299
18776SOL    HW261176   6.912   2.877   6.201
18777SOL     OW61177   6.383   3.124   7.047
18777SOL    HW161178   6.371   3.108   7.141
18777SOL    HW261179   6.392   3.037   7.009
18778SOL     OW61180   6.270   3.523   5.769
18778SOL    HW161181   6.301   3.543   5.680
18778SOL    HW261182   6.229   3.437   5.762
18779SOL     OW61183   7.198   3.598   6.983
18779SOL    HW161184   7.248   3.592   6.901
18779SOL    HW261185   7.213   3.688   7.013
18780SOL     OW61186   5.836   2.213   6.313
18780SOL    HW161187   5.745   2.236   6.293
18780SOL    HW261188   5.840   2.209   6.408
18781SOL     OW61189   6.766   3.432   5.617
18781SOL    HW161190   6.762   3.346   5.658
18781SOL    HW261191   6.710   3.424   5.540
18782SOL     OW61192   6.423   2.869   6.953
18782SOL    HW161193   6.460   2.819   6.880
18782SOL    HW261194   6.452   2.821   7.031
18783SOL     OW61195   6.487   2.775   5.891
18783SOL    HW161196   6.576   2.785   5.856
18783SOL    HW261197   6.492   2.698   5.948
18784SOL     OW61198   7.043   3.571   5.608
18784SOL    HW161199   6.976   3.504   5.606
18784SOL    HW261200   7.098   3.553   5.532
18785SOL     OW61201   5.952   3.128   7.032
18785SOL    HW161202   5.920   3.214   7.006
18785SOL    HW261203   5.872   3.075   7.041
18786SOL     OW61204   7.191   3.089   6.825
18786SOL    HW161205   7.278   3.126   6.843
18786SOL    HW261206   7.130   3.155   6.858
18787SOL     OW61207   6.675   2.983   6.383
18787SOL    HW161208   6.597   2.928   6.386
18787SOL    HW261209   6.742   2.927   6.344
18788SOL     OW61210   6.605   2.123   6.547
18788SOL    HW161211   6.587   2.072   6.468
18788SOL    HW261212   6.616   2.057   6.616
18789SOL     OW61213   6.180   3.329   6.021
18789SOL    HW161214   6.267   3.298   5.997
18789SOL    HW261215   6.125   3.308   5.946
18790SOL     OW61216   7.326   2.314   6.977
18790SOL    HW161217   7.405   2.369   6.979
18790SOL    HW261218   7.357   2.228   6.948
18791SOL     OW61219   5.864   3.206   5.886
18791SOL    HW161220   5.781   3.191   5.841
18791SOL    HW261221   5.839   3.254   5.965
18792SOL     OW61222   5.685   2.921   7.334
18792SOL    HW161223   5.621   2.866   7.381
18792SOL    HW261224   5.769   2.877   7.349
18793SOL     OW61225   6.284   2.161   7.095
18793SOL    HW161226   6.334   2.113   7.030
18793SOL    HW261227   6.323   2.136   7.179
18794SOL     OW61228   5.583   2.224   5.650
18794SOL    HW161229   5.516   2.170   5.608
18794SOL    HW261230   5.648   2.239   5.581
18795SOL     OW61231   7.052   2.733   7.001
18795SOL    HW161232   7.017   2.785   6.929
18795SOL    HW261233   7.147   2.738   6.991
18796SOL     OW61234   5.717   2.112   5.877
18796SOL    HW161235   5.658   2.114   5.802
18796SOL    HW261236   5.773   2.036   5.861
18797SOL     OW61237   6.698   3.186   5.720
18797SOL    HW161238   6.699   3.094   5.692
18797SOL    HW261239   6.748   3.188   5.801
18798SOL     OW61240   6.180   2.732   6.998
18798SOL    HW161241   6.253   2.790   6.979
18798SOL    HW261242   6.220   2.647   7.015
18799SOL     OW61243   7.084   3.706   6.627
18799SOL    HW161244   7.109   3.759   6.551
18799SOL    HW261245   7.167   3.676   6.663
18800SOL     OW61246   6.385   2.388   7.312
18800SOL    HW161247   6.455   2.410   7.374
18800SOL    HW261248   6.377   2.293   7.316
18801SOL     OW61249   7.041   3.083   7.207
18801SOL    HW161250   7.042   3.083   7.303
18801SOL    HW261251   7.131   3.103   7.183
18802SOL     OW61252   5.954   3.592   7.182
18802SOL    HW161253   5.876   3.643   7.161
18802SOL    HW261254   5.921   3.516   7.229
18803SOL     OW61255   6.845   2.148   6.089
18803SOL    HW161256   6.838   2.072   6.147
18803SOL    HW261257   6.850   2.223   6.148
18804SOL     OW61258   6.075   2.704   6.276
18804SOL    HW161259   6.157   2.740   6.242
18804SOL    HW261260   6.050   2.637   6.212
18805SOL     OW61261   7.309   2.246   7.258
18805SOL    HW161262   7.316   2.265   7.165
18805SOL    HW261263   7.240   2.179   7.263
18806SOL     OW61264   7.334   2.756   7.034
18806SOL    HW161265   7.365   2.840   7.000
18806SOL    HW261266   7.413   2.704   7.046
18807SOL     OW61267   6.401   3.266   5.628
18807SOL    HW161268   6.403   3.248   5.722
18807SOL    HW261269   6.491   3.287   5.606
18808SOL     OW61270   6.284   3.663   6.542
18808SOL    HW161271   6.321   3.728   6.482
18808SOL    HW261272   6.358   3.603   6.560
18809SOL     OW61273   6.438   2.842   6.438
18809SOL    HW161274   6.481   2.758   6.454
18809SOL    HW261275   6.443   2.888   6.522
18810SOL     OW61276   6.728   2.917   5.648
18810SOL    HW161277   6.819   2.943   5.635
18810SOL    HW261278   6.732   2.849   5.716
18811SOL     OW61279   7.455   3.434   6.440
18811SOL    HW161280   7.485   3.414   6.352
18811SOL    HW261281   7.475   3.356   6.491
18812SOL     OW61282   5.829   3.143   7.425
18812SOL    HW161283   5.776   3.069   7.397
18812SOL    HW261284   5.830   3.138   7.520
18813SOL     OW61285   5.693   3.099   6.257
18813SOL    HW161286   5.666   3.036   6.324
18813SOL    HW261287   5.754   3.050   6.202
18814SOL     OW61288   6.228   3.358   7.210
18814SOL    HW161289   6.178   3.288   7.252
18814SOL    HW261290   6.259   3.412   7.283
18815SOL     OW61291   7.434   2.082   6.888
18815SOL    HW161292   7.391   1.997   6.878
18815SOL    HW261293   7.478   2.096   6.804
18816SOL     OW61294   6.005   2.238   6.091
18816SOL    HW161295   6.055   2.157   6.092
18816SOL    HW261296   5.942   2.229   6.162
18817SOL     OW61297   7.286   3.380   6.710
18817SOL    HW161298   7.270   3.340   6.624
18817SOL    HW261299   7.342   3.316   6.755
18818SOL     OW61300   5.964   2.433   6.898
18818SOL    HW161301   5.982   2.382   6.977
18818SOL    HW261302   6.035   2.409   6.838
18819SOL     OW61303   6.399   3.465   6.277
18819SOL    HW161304   6.412   3.488   6.185
18819SOL    HW261305   6.334   3.394   6.274
18820SOL     OW61306   7.037   2.158   6.713
18820SOL    HW161307   7.084   2.075   6.708
18820SOL    HW261308   6.983   2.151   6.792
18821SOL     OW61309   6.643   1.918   6.727
18821SOL    HW161310   6.620   1.850   6.663
18821SOL    HW261311   6.732   1.896   6.754
18822SOL     OW61312   6.395   3.201   5.904
18822SOL    HW161313   6.363   3.111   5.910
18822SOL    HW261314   6.477   3.201   5.952
18823SOL     OW61315   6.906   1.939   5.685
18823SOL    HW161316   6.943   1.873   5.626
18823SOL    HW261317   6.824   1.900   5.716
18824SOL     OW61318   6.865   2.346   6.272
18824SOL    HW161319   6.824   2.433   6.273
18824SOL    HW261320   6.859   2.316   6.363
18825SOL     OW61321   5.631   2.916   5.886
18825SOL    HW161322   5.726   2.916   5.888
18825SOL    HW261323   5.607   2.823   5.887
18826SOL     OW61324   6.452   3.520   6.003
18826SOL    HW161325   6.401   3.509   5.923
18826SOL    HW261326   6.437   3.611   6.029
18827SOL     OW61327   5.771   2.493   7.555
18827SOL    HW161328   5.717   2.426   7.597
18827SOL    HW261329   5.765   2.475   7.462
18828SOL     OW61330   5.792   2.169   8.496
18828SOL    HW161331   5.860   2.103   8.503
18828SOL    HW261332   5.719   2.125   8.454
18829SOL     OW61333   5.585   2.244   8.110
18829SOL    HW161334   5.513   2.246   8.173
18829SOL    HW261335   5.566   2.168   8.054
18830SOL     OW61336   6.135   3.081   8.614
18830SOL    HW161337   6.118   2.987   8.622
18830SOL    HW261338   6.083   3.121   8.684
18831SOL     OW61339   7.161   3.357   8.146
18831SOL    HW161340   7.090   3.362   8.210
18831SOL    HW261341   7.117   3.364   8.061
18832SOL     OW61342   6.706   2.591   8.173
18832SOL    HW161343   6.799   2.610   8.185
18832SOL    HW261344   6.665   2.616   8.256
18833SOL     OW61345   7.273   2.443   7.708
18833SOL    HW161346   7.270   2.436   7.613
18833SOL    HW261347   7.248   2.356   7.739
18834SOL     OW61348   6.360   3.068   8.448
18834SOL    HW161349   6.288   3.067   8.510
18834SOL    HW261350   6.439   3.061   8.502
18835SOL     OW61351   6.269   2.813   8.081
18835SOL    HW161352   6.337   2.820   8.148
18835SOL    HW261353   6.195   2.863   8.116
18836SOL     OW61354   6.174   3.081   9.160
18836SOL    HW161355   6.222   2.999   9.150
18836SOL    HW261356   6.140   3.077   9.250
18837SOL     OW61357   5.872   3.367   8.427
18837SOL    HW161358   5.807   3.298   8.416
18837SOL    HW261359   5.953   3.330   8.394
18838SOL     OW61360   7.027   3.413   8.832
18838SOL    HW161361   7.078   3.494   8.839
18838SOL    HW261362   6.972   3.413   8.910
18839SOL     OW61363   6.017   2.233   8.956
18839SOL    HW161364   6.104   2.193   8.959
18839SOL    HW261365   5.976   2.210   9.039
18840SOL     OW61366   7.151   2.410   8.178
18840SOL    HW161367   7.124   2.318   8.185
18840SOL    HW261368   7.216   2.421   8.247
18841SOL     OW61369   5.770   3.635   7.915
18841SOL    HW161370   5.808   3.688   7.985
18841SOL    HW261371   5.845   3.597   7.871
18842SOL     OW61372   6.732   3.214   9.210
18842SOL    HW161373   6.737   3.211   9.305
18842SOL    HW261374   6.677   3.139   9.186
18843SOL     OW61375   5.772   3.306   7.974
18843SOL    HW161376   5.763   3.380   8.035
18843SOL    HW261377   5.754   3.229   8.028
18844SOL     OW61378   5.832   2.939   8.326
18844SOL    HW161379   5.829   2.844   8.327
18844SOL    HW261380   5.832   2.965   8.418
18845SOL     OW61381   6.229   3.573   8.925
18845SOL    HW161382   6.136   3.573   8.947
18845SOL    HW261383   6.271   3.617   8.999
18846SOL     OW61384   6.148   2.858   7.553
18846SOL    HW161385   6.216   2.814   7.502
18846SOL    HW261386   6.183   2.859   7.643
18847SOL     OW61387   7.047   2.013   8.781
18847SOL    HW161388   7.137   2.045   8.770
18847SOL    HW261389   7.057   1.922   8.807
18848SOL     OW61390   5.665   2.500   8.069
18848SOL    HW161391   5.649   2.406   8.065
18848SOL    HW261392   5.737   2.510   8.131
18849SOL     OW61393   7.442   3.561   7.798
18849SOL    HW161394   7.532   3.544   7.825
18849SOL    HW261395   7.438   3.656   7.786
18850SOL     OW61396   5.645   3.452   7.554
18850SOL    HW161397   5.632   3.359   7.570
18850SOL    HW261398   5.609   3.496   7.632
18851SOL     OW61399   7.260   2.970   7.886
18851SOL    HW161400   7.346   2.932   7.867
18851SOL    HW261401   7.271   3.010   7.972
18852SOL     OW61402   5.697   2.564   8.997
18852SOL    HW161403   5.718   2.500   9.064
18852SOL    HW261404   5.737   2.646   9.029
18853SOL     OW61405   6.182   3.200   8.105
18853SOL    HW161406   6.135   3.117   8.118
18853SOL    HW261407   6.156   3.254   8.179
18854SOL     OW61408   6.913   3.017   8.859
18854SOL    HW161409   6.972   2.942   8.851
18854SOL    HW261410   6.947   3.066   8.934
18855SOL     OW61411   6.416   1.825   7.990
18855SOL    HW161412   6.349   1.893   7.990
18855SOL    HW261413   6.366   1.743   8.001
18856SOL     OW61414   5.777   2.771   8.715
18856SOL    HW161415   5.870   2.750   8.722
18856SOL    HW261416   5.731   2.691   8.741
18857SOL     OW61417   7.155   2.878   7.645
18857SOL    HW161418   7.093   2.812   7.675
18857SOL    HW261419   7.198   2.909   7.725
18858SOL     OW61420   6.744   3.646   9.007
18858SOL    HW161421   6.740   3.652   9.103
18858SOL    HW261422   6.780   3.559   8.991
18859SOL     OW61423   5.905   2.144   9.193
18859SOL    HW161424   5.949   2.059   9.193
18859SOL    HW261425   5.832   2.134   9.254
18860SOL     OW61426   7.275   3.601   8.041
18860SOL    HW161427   7.347   3.559   7.996
18860SOL    HW261428   7.243   3.535   8.103
18861SOL     OW61429   6.156   2.588   7.716
18861SOL    HW161430   6.246   2.589   7.748
18861SOL    HW261431   6.102   2.574   7.794
18862SOL     OW61432   6.848   2.231   8.402
18862SOL    HW161433   6.762   2.189   8.402
18862SOL    HW261434   6.905   2.168   8.447
18863SOL     OW61435   7.187   3.501   7.710
18863SOL    HW161436   7.271   3.504   7.757
18863SOL    HW261437   7.181   3.411   7.678
18864SOL     OW61438   6.324   2.512   8.840
18864SOL    HW161439   6.321   2.486   8.933
18864SOL    HW261440   6.295   2.433   8.793
18865SOL     OW61441   6.952   2.271   9.113
18865SOL    HW161442   6.965   2.318   9.195
18865SOL    HW261443   7.010   2.195   9.120
18866SOL     OW61444   6.519   2.764   9.039
18866SOL    HW161445   6.575   2.688   9.024
18866SOL    HW261446   6.463   2.738   9.113
18867SOL     OW61447   6.524   2.290   8.669
18867SOL    HW161448   6.611   2.324   8.689
18867SOL    HW261449   6.519   2.206   8.715
18868SOL     OW61450   6.597   2.530   7.923
18868SOL    HW161451   6.637   2.552   8.007
18868SOL    HW261452   6.535   2.459   7.944
18869SOL     OW61453   5.561   2.697   8.288
18869SOL    HW161454   5.653   2.687   8.313
18869SOL    HW261455   5.540   2.788   8.307
18870SOL     OW61456   5.710   3.744   9.056
18870SOL    HW161457   5.726   3.754   9.150
18870SOL    HW261458   5.655   3.666   9.049
18871SOL     OW61459   6.466   2.215   7.647
18871SOL    HW161460   6.499   2.294   7.604
18871SOL    HW261461   6.491   2.143   7.589
18872SOL     OW61462   7.311   2.439   9.223
18872SOL    HW161463   7.244   2.485   9.174
18872SOL    HW261464   7.330   2.360   9.172
18873SOL     OW61465   6.978   2.963   7.906
18873SOL    HW161466   7.073   2.967   7.902
18873SOL    HW261467   6.954   2.886   7.854
18874SOL     OW61468   6.067   2.086   8.380
18874SOL    HW161469   6.109   2.068   8.464
18874SOL    HW261470   6.102   2.171   8.353
18875SOL     OW61471   6.597   3.249   7.957
18875SOL    HW161472   6.677   3.234   7.907
18875SOL    HW261473   6.627   3.260   8.047
18876SOL     OW61474   5.935   3.615   8.317
18876SOL    HW161475   5.918   3.526   8.350
18876SOL    HW261476   6.030   3.626   8.326
18877SOL     OW61477   7.354   2.910   8.313
18877SOL    HW161478   7.321   2.982   8.259
18877SOL    HW261479   7.318   2.927   8.400
18878SOL     OW61480   6.808   3.377   8.996
18878SOL    HW161481   6.808   3.338   9.083
18878SOL    HW261482   6.767   3.311   8.940
18879SOL     OW61483   5.876   2.791   7.674
18879SOL    HW161484   5.965   2.798   7.640
18879SOL    HW261485   5.847   2.703   7.651
18880SOL     OW61486   6.974   2.618   8.227
18880SOL    HW161487   7.033   2.555   8.184
18880SOL    HW261488   6.974   2.592   8.319
18881SOL     OW61489   5.931   3.159   9.076
18881SOL    HW161490   6.020   3.127   9.092
18881SOL    HW261491   5.881   3.129   9.152
18882SOL     OW61492   6.689   3.689   7.618
18882SOL    HW161493   6.600   3.671   7.649
18882SOL    HW261494   6.719   3.606   7.581
18883SOL     OW61495   5.653   2.134   8.950
18883SOL    HW161496   5.612   2.163   9.032
18883SOL    HW261497   5.679   2.043   8.968
18884SOL     OW61498   7.174   3.254   7.589
18884SOL    HW161499   7.243   3.256   7.523
18884SOL    HW261500   7.111   3.190   7.556
18885SOL     OW61501   6.015   3.609   7.778
18885SOL    HW161502   6.072   3.650   7.843
18885SOL    HW261503   6.074   3.559   7.722
18886SOL     OW61504   7.013   2.014   7.922
18886SOL    HW161505   6.996   1.965   7.842
18886SOL    HW261506   7.078   1.962   7.969
18887SOL     OW61507   5.786   3.662   8.666
18887SOL    HW161508   5.852   3.596   8.689
18887SOL    HW261509   5.758   3.637   8.578
18888SOL     OW61510   6.481   3.570   8.350
18888SOL    HW161511   6.533   3.606   8.422
18888SOL    HW261512   6.479   3.476   8.366
18889SOL     OW61513   5.992   2.525   7.928
18889SOL    HW161514   6.002   2.430   7.933
18889SOL    HW261515   5.897   2.538   7.925
18890SOL     OW61516   7.138   2.069   9.174
18890SOL    HW161517   7.129   2.097   9.266
18890SOL    HW261518   7.114   1.976   9.175
18891SOL     OW61519   6.227   1.958   7.512
18891SOL    HW161520   6.252   1.873   7.548
18891SOL    HW261521   6.158   1.938   7.449
18892SOL     OW61522   6.391   2.181   9.191
18892SOL    HW161523   6.468   2.127   9.171
18892SOL    HW261524   6.385   2.180   9.287
18893SOL     OW61525   6.512   3.375   8.769
18893SOL    HW161526   6.486   3.337   8.685
18893SOL    HW261527   6.578   3.314   8.803
18894SOL     OW61528   6.949   2.465   8.916
18894SOL    HW161529   6.941   2.386   8.970
18894SOL    HW261530   7.025   2.511   8.951
18895SOL     OW61531   6.431   3.302   8.327
18895SOL    HW161532   6.519   3.286   8.293
18895SOL    HW261533   6.404   3.218   8.364
18896SOL     OW61534   6.520   2.363   8.408
18896SOL    HW161535   6.549   2.282   8.364
18896SOL    HW261536   6.523   2.342   8.501
18897SOL     OW61537   6.203   2.006   7.958
18897SOL    HW161538   6.145   1.997   8.034
18897SOL    HW261539   6.176   1.935   7.900
18898SOL     OW61540   7.016   3.052   7.481
18898SOL    HW161541   7.070   2.989   7.529
18898SOL    HW261542   6.927   3.019   7.490
18899SOL     OW61543   5.906   1.853   7.678
18899SOL    HW161544   5.998   1.853   7.705
18899SOL    HW261545   5.864   1.790   7.736
18900SOL     OW61546   6.554   2.090   7.934
18900SOL    HW161547   6.574   2.020   7.995
18900SOL    HW261548   6.639   2.126   7.909
18901SOL     OW61549   6.683   2.556   8.937
18901SOL    HW161550   6.659   2.479   8.988
18901SOL    HW261551   6.777   2.548   8.924
18902SOL     OW61552   6.903   3.423   8.241
18902SOL    HW161553   6.899   3.496   8.180
18902SOL    HW261554   6.884   3.462   8.326
18903SOL     OW61555   6.040   2.968   8.138
18903SOL    HW161556   5.982   2.954   8.213
18903SOL    HW261557   5.986   2.953   8.061
18904SOL     OW61558   6.875   3.629   8.054
18904SOL    HW161559   6.913   3.708   8.014
18904SOL    HW261560   6.789   3.657   8.085
18905SOL     OW61561   6.597   2.413   7.494
18905SOL    HW161562   6.642   2.362   7.427
18905SOL    HW261563   6.660   2.421   7.565
18906SOL     OW61564   5.746   2.408   8.771
18906SOL    HW161565   5.841   2.423   8.763
18906SOL    HW261566   5.721   2.458   8.849
18907SOL     OW61567   6.157   2.043   8.640
18907SOL    HW161568   6.206   1.974   8.685
18907SOL    HW261569   6.071   2.044   8.683
18908SOL     OW61570   6.392   2.341   7.996
18908SOL    HW161571   6.331   2.403   8.035
18908SOL    HW261572   6.437   2.301   8.071
18909SOL     OW61573   6.606   1.913   8.162
18909SOL    HW161574   6.539   1.871   8.107
18909SOL    HW261575   6.657   1.841   8.197
18910SOL     OW61576   7.060   3.075   8.328
18910SOL    HW161577   6.999   3.009   8.295
18910SOL    HW261578   7.122   3.088   8.255
18911SOL     OW61579   6.975   2.479   8.469
18911SOL    HW161580   6.926   2.397   8.459
18911SOL    HW261581   7.052   2.454   8.521
18912SOL     OW61582   7.491   2.597   7.772
18912SOL    HW161583   7.561   2.562   7.717
18912SOL    HW261584   7.412   2.551   7.744
18913SOL     OW61585   6.071   3.267   7.603
18913SOL    HW161586   5.993   3.242   7.653
18913SOL    HW261587   6.101   3.185   7.563
18914SOL     OW61588   7.298   3.112   8.128
18914SOL    HW161589   7.394   3.115   8.123
18914SOL    HW261590   7.271   3.204   8.126
18915SOL     OW61591   6.975   2.455   7.508
18915SOL    HW161592   6.948   2.387   7.570
18915SOL    HW261593   7.071   2.446   7.504
18916SOL     OW61594   6.167   2.161   7.700
18916SOL    HW161595   6.180   2.096   7.631
18916SOL    HW261596   6.114   2.230   7.659
18917SOL     OW61597   7.317   3.150   9.021
18917SOL    HW161598   7.379   3.086   9.057
18917SOL    HW261599   7.353   3.235   9.048
18918SOL     OW61600   6.687   3.174   8.856
18918SOL    HW161601   6.618   3.130   8.905
18918SOL    HW261602   6.761   3.113   8.858
18919SOL     OW61603   7.193   3.557   9.082
18919SOL    HW161604   7.198   3.586   8.991
18919SOL    HW261605   7.266   3.496   9.091
18920SOL     OW61606   6.596   3.057   8.584
18920SOL    HW161607   6.576   3.011   8.666
18920SOL    HW261608   6.688   3.037   8.567
18921SOL     OW61609   7.261   2.972   8.574
18921SOL    HW161610   7.328   3.002   8.635
18921SOL    HW261611   7.256   2.877   8.587
18922SOL     OW61612   6.497   2.056   8.810
18922SOL    HW161613   6.499   1.960   8.800
18922SOL    HW261614   6.583   2.077   8.846
18923SOL     OW61615   6.526   3.027   9.127
18923SOL    HW161616   6.476   3.020   9.208
18923SOL    HW261617   6.543   2.936   9.102
18924SOL     OW61618   6.294   2.874   7.806
18924SOL    HW161619   6.276   2.849   7.897
18924SOL    HW261620   6.371   2.822   7.782
18925SOL     OW61621   6.042   2.694   8.740
18925SOL    HW161622   6.100   2.726   8.809
18925SOL    HW261623   6.036   2.600   8.757
18926SOL     OW61624   6.787   2.350   8.716
18926SOL    HW161625   6.852   2.402   8.764
18926SOL    HW261626   6.785   2.266   8.763
18927SOL     OW61627   5.673   3.444   8.817
18927SOL    HW161628   5.676   3.535   8.791
18927SOL    HW261629   5.764   3.414   8.814
18928SOL     OW61630   5.879   2.958   7.908
18928SOL    HW161631   5.884   3.031   7.847
18928SOL    HW261632   5.880   2.880   7.853
18929SOL     OW61633   6.127   2.359   8.304
18929SOL    HW161634   6.154   2.402   8.222
18929SOL    HW261635   6.176   2.405   8.372
18930SOL     OW61636   6.844   3.203   7.842
18930SOL    HW161637   6.905   3.273   7.869
18930SOL    HW261638   6.888   3.123   7.870
18931SOL     OW61639   6.912   3.287   8.623
18931SOL    HW161640   6.952   3.331   8.697
18931SOL    HW261641   6.839   3.237   8.661
18932SOL     OW61642   7.254   2.545   7.965
18932SOL    HW161643   7.207   2.492   8.030
18932SOL    HW261644   7.233   2.505   7.881
18933SOL     OW61645   5.926   3.424   8.697
18933SOL    HW161646   5.916   3.397   8.605
18933SOL    HW261647   5.953   3.344   8.742
18934SOL     OW61648   6.037   2.598   9.057
18934SOL    HW161649   6.106   2.658   9.027
18934SOL    HW261650   6.085   2.521   9.089
18935SOL     OW61651   7.150   2.590   9.058
18935SOL    HW161652   7.093   2.655   9.099
18935SOL    HW261653   7.224   2.640   9.025
18936SOL     OW61654   6.604   2.002   9.167
18936SOL    HW161655   6.636   1.973   9.252
18936SOL    HW261656   6.636   1.935   9.106
18937SOL     OW61657   6.019   1.879   9.190
18937SOL    HW161658   6.089   1.826   9.150
18937SOL    HW261659   5.950   1.816   9.210
18938SOL     OW61660   6.084   2.711   8.468
18938SOL    HW161661   6.160   2.654   8.455
18938SOL    HW261662   6.070   2.710   8.563
18939SOL     OW61663   6.849   2.721   8.516
18939SOL    HW161664   6.761   2.691   8.492
18939SOL    HW261665   6.902   2.641   8.517
18940SOL     OW61666   6.754   2.409   7.725
18940SOL    HW161667   6.781   2.328   7.767
18940SOL    HW261668   6.702   2.454   7.792
18941SOL     OW61669   5.902   2.033   8.752
18941SOL    HW161670   5.925   2.013   8.843
18941SOL    HW261671   5.878   1.948   8.715
18942SOL     OW61672   5.606   3.213   8.676
18942SOL    HW161673   5.633   3.137   8.728
18942SOL    HW261674   5.621   3.287   8.734
18943SOL     OW61675   6.286   2.513   8.469
18943SOL    HW161676   6.370   2.482   8.435
18943SOL    HW261677   6.273   2.463   8.550
18944SOL     OW61678   7.297   2.782   9.316
18944SOL    HW161679   7.311   2.689   9.331
18944SOL    HW261680   7.237   2.809   9.385
18945SOL     OW61681   5.919   1.910   8.047
18945SOL    HW161682   5.883   1.995   8.073
18945SOL    HW261683   5.932   1.864   8.130
18946SOL     OW61684   7.183   2.212   7.824
18946SOL    HW161685   7.261   2.170   7.859
18946SOL    HW261686   7.111   2.171   7.870
18947SOL     OW61687   6.591   2.628   8.439
18947SOL    HW161688   6.571   2.638   8.532
18947SOL    HW261689   6.580   2.535   8.421
18948SOL     OW61690   6.508   3.414   9.128
18948SOL    HW161691   6.598   3.441   9.145
18948SOL    HW261692   6.482   3.365   9.206
18949SOL     OW61693   7.433   3.411   9.055
18949SOL    HW161694   7.468   3.404   8.966
18949SOL    HW261695   7.510   3.409   9.112
18950SOL     OW61696   5.835   2.760   9.144
18950SOL    HW161697   5.836   2.738   9.237
18950SOL    HW261698   5.910   2.714   9.108
18951SOL     OW61699   7.040   2.166   7.589
18951SOL    HW161700   6.997   2.084   7.615
18951SOL    HW261701   7.099   2.186   7.662
18952SOL     OW61702   6.870   2.708   7.483
18952SOL    HW161703   6.894   2.615   7.488
18952SOL    HW261704   6.898   2.736   7.396
18953SOL     OW61705   6.675   3.266   8.218
18953SOL    HW161706   6.686   3.171   8.221
18953SOL    HW261707   6.763   3.301   8.232
18954SOL     OW61708   5.840   2.667   8.346
18954SOL    HW161709   5.925   2.687   8.386
18954SOL    HW261710   5.834   2.571   8.350
18955SOL     OW61711   5.854   2.397   8.347
18955SOL    HW161712   5.826   2.330   8.410
18955SOL    HW261713   5.947   2.379   8.332
18956SOL     OW61714   6.682   2.332   9.099
18956SOL    HW161715   6.639   2.346   9.183
18956SOL    HW261716   6.772   2.309   9.121
18957SOL     OW61717   6.745   2.140   8.891
18957SOL    HW161718   6.726   2.183   8.974
18957SOL    HW261719   6.825   2.090   8.908
18958SOL     OW61720   5.578   3.174   7.624
18958SOL    HW161721   5.486   3.188   7.603
18958SOL    HW261722   5.583   3.082   7.651
18959SOL     OW61723   5.671   3.622   8.397
18959SOL    HW161724   5.639   3.547   8.346
18959SOL    HW261725   5.762   3.632   8.371
18960SOL     OW61726   6.133   3.354   8.335
18960SOL    HW161727   6.164   3.445   8.333
18960SOL    HW261728   6.199   3.307   8.385
18961SOL     OW61729   6.535   2.635   8.710
18961SOL    HW161730   6.603   2.610   8.773
18961SOL    HW261731   6.455   2.593   8.744
18962SOL     OW61732   5.768   2.405   9.215
18962SOL    HW161733   5.829   2.332   9.206
18962SOL    HW261734   5.690   2.367   9.256
18963SOL     OW61735   6.991   2.803   9.123
18963SOL    HW161736   6.996   2.880   9.180
18963SOL    HW261737   7.007   2.837   9.035
18964SOL     OW61738   7.206   2.425   8.614
18964SOL    HW161739   7.214   2.357   8.681
18964SOL    HW261740   7.296   2.438   8.582
18965SOL     OW61741   5.841   3.408   9.161
18965SOL    HW161742   5.823   3.399   9.255
18965SOL    HW261743   5.876   3.323   9.135
18966SOL     OW61744   6.253   2.304   8.653
18966SOL    HW161745   6.220   2.215   8.654
18966SOL    HW261746   6.348   2.295   8.659
18967SOL     OW61747   6.572   3.649   8.792
18967SOL    HW161748   6.547   3.557   8.788
18967SOL    HW261749   6.630   3.656   8.868
18968SOL     OW61750   6.025   2.376   7.594
18968SOL    HW161751   6.082   2.448   7.620
18968SOL    HW261752   5.939   2.416   7.581
18969SOL     OW61753   5.714   3.011   8.830
18969SOL    HW161754   5.698   2.991   8.923
18969SOL    HW261755   5.733   2.927   8.791
18970SOL     OW61756   6.877   2.983   8.590
18970SOL    HW161757   6.872   2.892   8.559
18970SOL    HW261758   6.877   2.976   8.685
18971SOL     OW61759   6.934   2.736   7.750
18971SOL    HW161760   6.924   2.651   7.793
18971SOL    HW261761   6.904   2.721   7.661
18972SOL     OW61762   7.296   3.569   8.556
18972SOL    HW161763   7.379   3.586   8.512
18972SOL    HW261764   7.286   3.474   8.551
18973SOL     OW61765   6.849   3.529   8.492
18973SOL    HW161766   6.930   3.579   8.486
18973SOL    HW261767   6.874   3.449   8.539
18974SOL     OW61768   5.647   3.193   8.407
18974SOL    HW161769   5.634   3.196   8.502
18974SOL    HW261770   5.609   3.109   8.381
18975SOL     OW61771   6.351   3.642   9.161
18975SOL    HW161772   6.299   3.609   9.235
18975SOL    HW261773   6.425   3.582   9.155
18976SOL     OW61774   7.367   2.052   7.948
18976SOL    HW161775   7.423   2.023   7.877
18976SOL    HW261776   7.327   1.971   7.981
18977SOL     OW61777   7.007   3.421   7.917
18977SOL    HW161778   7.057   3.464   7.848
18977SOL    HW261779   6.959   3.493   7.959
18978SOL     OW61780   5.733   3.715   9.330
18978SOL    HW161781   5.702   3.625   9.339
18978SOL    HW261782   5.799   3.725   9.398
18979SOL     OW61783   6.916   2.887   8.175
18979SOL    HW161784   6.943   2.797   8.194
18979SOL    HW261785   6.938   2.901   8.084
18980SOL     OW61786   6.393   3.142   8.918
18980SOL    HW161787   6.420   3.106   9.003
18980SOL    HW261788   6.390   3.067   8.860
18981SOL     OW61789   6.212   3.498   7.617
18981SOL    HW161790   6.254   3.509   7.532
18981SOL    HW261791   6.169   3.413   7.613
18982SOL     OW61792   7.189   3.640   8.814
18982SOL    HW161793   7.234   3.627   8.730
18982SOL    HW261794   7.174   3.734   8.820
18983SOL     OW61795   7.323   2.005   8.363
18983SOL    HW161796   7.410   1.967   8.372
18983SOL    HW261797   7.263   1.932   8.376
18984SOL     OW61798   5.850   2.155   8.151
18984SOL    HW161799   5.759   2.185   8.156
18984SOL    HW261800   5.878   2.148   8.242
18985SOL     OW61801   6.788   3.456   7.497
18985SOL    HW161802   6.778   3.372   7.543
18985SOL    HW261803   6.721   3.453   7.428
18986SOL     OW61804   6.507   2.900   8.797
18986SOL    HW161805   6.510   2.819   8.745
18986SOL    HW261806   6.509   2.870   8.888
18987SOL     OW61807   6.520   2.731   7.753
18987SOL    HW161808   6.597   2.739   7.697
18987SOL    HW261809   6.543   2.664   7.816
18988SOL     OW61810   7.040   3.575   7.452
18988SOL    HW161811   6.960   3.524   7.463
18988SOL    HW261812   7.075   3.547   7.368
18989SOL     OW61813   5.945   3.171   8.805
18989SOL    HW161814   5.960   3.176   8.899
18989SOL    HW261815   5.869   3.113   8.797
18990SOL     OW61816   7.170   3.186   8.773
18990SOL    HW161817   7.221   3.151   8.846
18990SOL    HW261818   7.122   3.260   8.811
18991SOL     OW61819   6.662   2.998   8.192
18991SOL    HW161820   6.596   2.933   8.219
18991SOL    HW261821   6.744   2.950   8.191
18992SOL     OW61822   6.603   2.096   8.368
18992SOL    HW161823   6.608   2.043   8.289
18992SOL    HW261824   6.594   2.032   8.439
18993SOL     OW61825   7.329   2.237   8.787
18993SOL    HW161826   7.418   2.273   8.783
18993SOL    HW261827   7.337   2.150   8.748
18994SOL     OW61828   5.833   3.193   7.732
18994SOL    HW161829   5.742   3.189   7.702
18994SOL    HW261830   5.830   3.240   7.815
18995SOL     OW61831   5.615   2.918   9.095
18995SOL    HW161832   5.558   2.896   9.168
18995SOL    HW261833   5.699   2.876   9.116
18996SOL     OW61834   6.270   2.119   8.954
18996SOL    HW161835   6.349   2.105   8.903
18996SOL    HW261836   6.301   2.142   9.041
18997SOL     OW61837   5.652   2.218   7.553
18997SOL    HW161838   5.586   2.150   7.539
18997SOL    HW261839   5.723   2.194   7.494
18998SOL     OW61840   7.096   2.817   8.848
18998SOL    HW161841   7.080   2.736   8.798
18998SOL    HW261842   7.186   2.809   8.878
18999SOL     OW61843   5.684   2.011   7.750
18999SOL    HW161844   5.697   2.096   7.708
18999SOL    HW261845   5.769   1.967   7.742
19000SOL     OW61846   6.708   3.207   7.602
19000SOL    HW161847   6.719   3.118   7.569
19000SOL    HW261848   6.756   3.208   7.685
19001SOL     OW61849   6.226   2.764   8.941
19001SOL    HW161850   6.255   2.797   9.026
19001SOL    HW261851   6.291   2.697   8.919
19002SOL     OW61852   7.072   3.676   8.438
19002SOL    HW161853   7.106   3.751   8.389
19002SOL    HW261854   7.149   3.640   8.481
19003SOL     OW61855   6.294   2.443   9.103
19003SOL    HW161856   6.314   2.511   9.167
19003SOL    HW261857   6.329   2.362   9.140
19004SOL     OW61858   7.044   3.120   9.071
19004SOL    HW161859   7.023   3.101   9.162
19004SOL    HW261860   7.139   3.131   9.069
19005SOL     OW61861   5.966   3.614   9.034
19005SOL    HW161862   5.888   3.668   9.026
19005SOL    HW261863   5.936   3.533   9.075
19006SOL     OW61864   7.263   2.700   8.594
19006SOL    HW161865   7.208   2.624   8.609
19006SOL    HW261866   7.349   2.663   8.571
19007SOL     OW61867   6.809   2.199   7.900
19007SOL    HW161868   6.877   2.132   7.906
19007SOL    HW261869   6.810   2.242   7.986
19008SOL     OW61870   6.216   2.532   8.091
19008SOL    HW161871   6.244   2.623   8.099
19008SOL    HW261872   6.135   2.536   8.041
19009SOL     OW61873   7.344   2.214   9.064
19009SOL    HW161874   7.318   2.226   8.973
19009SOL    HW261875   7.276   2.157   9.101
19010SOL     OW61876   7.348   2.754   8.960
19010SOL    HW161877   7.379   2.812   9.029
19010SOL    HW261878   7.418   2.689   8.949
19011SOL     OW61879   6.410   3.238   7.525
19011SOL    HW161880   6.385   3.211   7.613
19011SOL    HW261881   6.504   3.257   7.531
19012SOL     OW61882   6.212   3.630   8.334
19012SOL    HW161883   6.202   3.723   8.354
19012SOL    HW261884   6.306   3.614   8.341
19013SOL     OW61885   6.451   2.838   8.292
19013SOL    HW161886   6.486   2.768   8.347
19013SOL    HW261887   6.417   2.902   8.354
19014SOL     OW61888   6.752   2.958   7.484
19014SOL    HW161889   6.686   2.946   7.415
19014SOL    HW261890   6.786   2.870   7.499
19015SOL     OW61891   7.434   3.384   8.271
19015SOL    HW161892   7.340   3.366   8.262
19015SOL    HW261893   7.466   3.312   8.324
19016SOL     OW61894   5.839   3.103   9.322
19016SOL    HW161895   5.779   3.112   9.396
19016SOL    HW261896   5.923   3.078   9.361
19017SOL     OW61897   5.717   3.071   8.109
19017SOL    HW161898   5.745   3.034   8.192
19017SOL    HW261899   5.762   3.018   8.043
19018SOL     OW61900   6.206   3.346   9.125
19018SOL    HW161901   6.193   3.253   9.143
19018SOL    HW261902   6.195   3.388   9.211
19019SOL     OW61903   7.310   1.988   8.672
19019SOL    HW161904   7.291   1.897   8.697
19019SOL    HW261905   7.322   1.985   8.577
19020SOL     OW61906   6.016   2.259   7.956
19020SOL    HW161907   6.053   2.186   7.906
19020SOL    HW261908   5.964   2.217   8.024
19021SOL     OW61909   7.267   3.287   8.535
19021SOL    HW161910   7.263   3.262   8.627
19021SOL    HW261911   7.347   3.246   8.502
19022SOL     OW61912   6.020   2.417   8.757
19022SOL    HW161913   6.016   2.364   8.837
19022SOL    HW261914   6.094   2.381   8.708
19023SOL     OW61915   6.371   3.457   8.078
19023SOL    HW161916   6.377   3.551   8.063
19023SOL    HW261917   6.385   3.446   8.172
19024SOL     OW61918   7.009   2.029   8.499
19024SOL    HW161919   7.058   1.952   8.469
19024SOL    HW261920   7.016   2.025   8.594
19025SOL     OW61921   6.585   1.865   8.528
19025SOL    HW161922   6.567   1.843   8.619
19025SOL    HW261923   6.670   1.824   8.510
19026SOL     OW61924   6.386   3.129   7.783
19026SOL    HW161925   6.343   3.044   7.781
19026SOL    HW261926   6.480   3.109   7.783
19027SOL     OW61927   6.950   1.919   7.667
19027SOL    HW161928   7.007   1.843   7.675
19027SOL    HW261929   6.864   1.883   7.644
19028SOL     OW61930   6.799   2.323   8.142
19028SOL    HW161931   6.769   2.411   8.165
19028SOL    HW261932   6.832   2.286   8.223
19029SOL     OW61933   7.119   2.153   8.260
19029SOL    HW161934   7.052   2.124   8.323
19029SOL    HW261935   7.197   2.104   8.285
19030SOL     OW61936   5.616   2.904   7.719
19030SOL    HW161937   5.706   2.890   7.690
19030SOL    HW261938   5.594   2.824   7.766
19031SOL     OW61939   6.425   3.649   7.711
19031SOL    HW161940   6.363   3.577   7.693
19031SOL    HW261941   6.430   3.653   7.806
19032SOL     OW61942   5.844   2.628   9.386
19032SOL    HW161943   5.779   2.639   9.455
19032SOL    HW261944   5.819   2.548   9.341
19033SOL     OW61945   7.373   2.453   9.489
19033SOL    HW161946   7.341   2.440   9.400
19033SOL    HW261947   7.332   2.384   9.540
19034SOL     OW61948   5.726   3.615   9.784
19034SOL    HW161949   5.776   3.665   9.849
19034SOL    HW261950   5.728   3.525   9.816
19035SOL     OW61951   5.696   3.350   9.866
19035SOL    HW161952   5.639   3.373   9.939
19035SOL    HW261953   5.689   3.255   9.859
19036SOL     OW61954   5.737   2.582   9.831
19036SOL    HW161955   5.729   2.490   9.855
19036SOL    HW261956   5.698   2.629   9.904
19037SOL     OW61957   7.477   3.615   9.646
19037SOL    HW161958   7.547   3.598   9.710
19037SOL    HW261959   7.494   3.704   9.615
19038SOL     OW61960   5.640   3.451   9.377
19038SOL    HW161961   5.642   3.359   9.401
19038SOL    HW261962   5.594   3.494   9.449
19039SOL     OW61963   7.201   2.721   9.961
19039SOL    HW161964   7.283   2.719   0.011
19039SOL    HW261965   7.212   2.793   9.899
19040SOL     OW61966   7.149   3.002   9.744
19040SOL    HW161967   7.202   3.059   9.800
19040SOL    HW261968   7.060   3.036   9.752
19041SOL     OW61969   6.212   3.270   9.975
19041SOL    HW161970   6.152   3.197   9.990
19041SOL    HW261971   6.209   3.285   9.881
19042SOL     OW61972   6.419   1.806   9.777
19042SOL    HW161973   6.478   1.825   9.850
19042SOL    HW261974   6.340   1.857   9.797
19043SOL     OW61975   7.103   2.850   9.514
19043SOL    HW161976   7.026   2.801   9.543
19043SOL    HW261977   7.135   2.894   9.593
19044SOL     OW61978   7.205   3.641   9.674
19044SOL    HW161979   7.298   3.623   9.663
19044SOL    HW261980   7.167   3.629   9.587
19045SOL     OW61981   5.607   2.702   0.056
19045SOL    HW161982   5.651   2.628   0.097
19045SOL    HW261983   5.604   2.769   0.125
19046SOL     OW61984   6.470   2.180   9.460
19046SOL    HW161985   6.518   2.257   9.428
19046SOL    HW261986   6.539   2.117   9.482
19047SOL     OW61987   6.494   3.386   9.732
19047SOL    HW161988   6.523   3.446   9.800
19047SOL    HW261989   6.549   3.309   9.743
19048SOL     OW61990   5.998   3.652   0.157
19048SOL    HW161991   6.059   3.580   0.139
19048SOL    HW261992   6.053   3.730   0.161
19049SOL     OW61993   6.684   3.689   9.482
19049SOL    HW161994   6.600   3.655   9.511
19049SOL    HW261995   6.747   3.659   9.549
19050SOL     OW61996   7.119   3.222   9.460
19050SOL    HW161997   7.052   3.240   9.526
19050SOL    HW261998   7.080   3.154   9.405
19051SOL     OW61999   6.121   3.590   9.637
19051SOL    HW162000   6.122   3.503   9.678
19051SOL    HW262001   6.187   3.585   9.568
19052SOL     OW62002   7.012   2.000   9.711
19052SOL    HW162003   7.026   1.910   9.680
19052SOL    HW262004   7.096   2.025   9.749
19053SOL     OW62005   5.975   2.693   9.724
19053SOL    HW162006   6.054   2.657   9.764
19053SOL    HW262007   5.904   2.644   9.763
19054SOL     OW62008   6.154   1.954   9.424
19054SOL    HW162009   6.213   1.880   9.436
19054SOL    HW262010   6.121   1.943   9.335
19055SOL     OW62011   6.191   1.966   9.831
19055SOL    HW162012   6.111   1.913   9.838
19055SOL    HW262013   6.174   2.023   9.756
19056SOL     OW62014   6.990   3.009   9.321
19056SOL    HW162015   7.034   2.954   9.385
19056SOL    HW262016   6.896   2.993   9.336
19057SOL     OW62017   5.901   1.889   9.520
19057SOL    HW162018   5.988   1.920   9.495
19057SOL    HW262019   5.918   1.816   9.579
19058SOL     OW62020   6.029   3.060   0.031
19058SOL    HW162021   6.065   2.979   0.066
19058SOL    HW262022   5.982   3.033   9.952
19059SOL     OW62023   6.594   2.408   9.355
19059SOL    HW162024   6.554   2.494   9.364
19059SOL    HW262025   6.666   2.407   9.418
19060SOL     OW62026   7.422   2.691   9.615
19060SOL    HW162027   7.457   2.660   9.699
19060SOL    HW262028   7.401   2.611   9.567
19061SOL     OW62029   6.037   3.328   9.429
19061SOL    HW162030   5.968   3.323   9.495
19061SOL    HW262031   6.082   3.244   9.434
19062SOL     OW62032   6.972   2.398   9.356
19062SOL    HW162033   6.907   2.400   9.427
19062SOL    HW262034   7.033   2.329   9.381
19063SOL     OW62035   6.123   2.143   9.626
19063SOL    HW162036   6.143   2.086   9.551
19063SOL    HW262037   6.118   2.230   9.588
19064SOL     OW62038   5.923   2.960   9.771
19064SOL    HW162039   5.975   3.003   9.703
19064SOL    HW262040   5.941   2.866   9.760
19065SOL     OW62041   7.195   2.501   9.783
19065SOL    HW162042   7.182   2.553   9.862
19065SOL    HW262043   7.237   2.561   9.721
19066SOL     OW62044   6.785   2.391   9.552
19066SOL    HW162045   6.806   2.329   9.621
19066SOL    HW262046   6.743   2.465   9.597
19067SOL     OW62047   5.915   1.934   9.917
19067SOL    HW162048   5.918   2.029   9.909
19067SOL    HW262049   5.903   1.918   0.011
19068SOL     OW62050   7.237   2.266   9.648
19068SOL    HW162051   7.255   2.192   9.706
19068SOL    HW262052   7.210   2.337   9.706
19069SOL     OW62053   7.100   2.166   9.428
19069SOL    HW162054   7.051   2.085   9.445
19069SOL    HW262055   7.143   2.186   9.512
19070SOL     OW62056   6.853   2.648   9.306
19070SOL    HW162057   6.895   2.563   9.314
19070SOL    HW262058   6.900   2.691   9.234
19071SOL     OW62059   5.614   3.183   9.486
19071SOL    HW162060   5.532   3.181   9.437
19071SOL    HW262061   5.613   3.101   9.537
19072SOL     OW62062   6.070   2.422   9.568
19072SOL    HW162063   6.096   2.424   9.660
19072SOL    HW262064   5.988   2.470   9.565
19073SOL     OW62065   6.858   2.726   9.574
19073SOL    HW162066   6.785   2.689   9.622
19073SOL    HW262067   6.853   2.686   9.487
19074SOL     OW62068   7.293   2.029   9.780
19074SOL    HW162069   7.369   2.017   9.723
19074SOL    HW262070   7.286   1.948   9.829
19075SOL     OW62071   6.230   3.504   9.367
19075SOL    HW162072   6.310   3.464   9.400
19075SOL    HW262073   6.160   3.446   9.397
19076SOL     OW62074   6.728   3.520   9.265
19076SOL    HW162075   6.763   3.435   9.293
19076SOL    HW262076   6.725   3.572   9.346
19077SOL     OW62077   7.076   3.584   9.426
19077SOL    HW162078   7.002   3.539   9.467
19077SOL    HW262079   7.109   3.522   9.360
19078SOL     OW62080   6.229   3.323   9.699
19078SOL    HW162081   6.322   3.342   9.710
19078SOL    HW262082   6.227   3.260   9.627
19079SOL     OW62083   5.829   3.309   9.612
19079SOL    HW162084   5.752   3.264   9.576
19079SOL    HW262085   5.804   3.331   9.701
19080SOL     OW62086   5.664   2.139   9.337
19080SOL    HW162087   5.661   2.044   9.323
19080SOL    HW262088   5.572   2.166   9.340
19081SOL     OW62089   5.690   2.044   9.604
19081SOL    HW162090   5.695   2.102   9.528
19081SOL    HW262091   5.768   1.989   9.597
19082SOL     OW62092   6.720   3.257   9.483
19082SOL    HW162093   6.740   3.197   9.555
19082SOL    HW262094   6.767   3.338   9.505
19083SOL     OW62095   6.834   2.208   9.749
19083SOL    HW162096   6.896   2.141   9.719
19083SOL    HW262097   6.825   2.191   9.843
19084SOL     OW62098   6.450   3.306   9.378
19084SOL    HW162099   6.386   3.247   9.418
19084SOL    HW262100   6.533   3.284   9.422
19085SOL     OW62101   6.736   2.904   9.362
19085SOL    HW162102   6.709   2.899   9.454
19085SOL    HW262103   6.754   2.813   9.337
19086SOL     OW62104   5.574   3.104   9.952
19086SOL    HW162105   5.554   3.182   0.004
19086SOL    HW262106   5.611   3.042   0.015
19087SOL     OW62107   5.953   2.209   9.844
19087SOL    HW162108   5.987   2.169   9.764
19087SOL    HW262109   6.011   2.283   9.860
19088SOL     OW62110   6.962   1.928   9.386
19088SOL    HW162111   6.990   1.842   9.355
19088SOL    HW262112   6.877   1.912   9.427
19089SOL     OW62113   5.663   2.949   9.634
19089SOL    HW162114   5.739   2.956   9.691
19089SOL    HW262115   5.663   2.857   9.605
19090SOL     OW62116   6.435   3.595   9.560
19090SOL    HW162117   6.457   3.509   9.594
19090SOL    HW262118   6.423   3.649   9.638
19091SOL     OW62119   5.800   4.364   0.159
19091SOL    HW162120   5.717   4.330   0.193
19091SOL    HW262121   5.782   4.383   0.067
19092SOL     OW62122   5.774   4.099   1.066
19092SOL    HW162123   5.827   4.037   1.116
19092SOL    HW262124   5.708   4.044   1.023
19093SOL     OW62125   5.562   4.113   0.621
19093SOL    HW162126   5.493   4.046   0.617
19093SOL    HW262127   5.631   4.080   0.563
19094SOL     OW62128   6.159   5.019   1.220
19094SOL    HW162129   6.112   5.054   1.144
19094SOL    HW262130   6.177   5.096   1.274
19095SOL     OW62131   7.171   5.247   0.711
19095SOL    HW162132   7.131   5.219   0.793
19095SOL    HW262133   7.097   5.260   0.652
19096SOL     OW62134   6.732   4.458   0.672
19096SOL    HW162135   6.778   4.540   0.660
19096SOL    HW262136   6.688   4.467   0.756
19097SOL     OW62137   7.245   4.327   0.271
19097SOL    HW162138   7.184   4.329   0.198
19097SOL    HW262139   7.248   4.235   0.298
19098SOL     OW62140   6.323   4.868   1.062
19098SOL    HW162141   6.271   4.903   1.134
19098SOL    HW262142   6.360   4.945   1.019
19099SOL     OW62143   6.473   4.468   1.810
19099SOL    HW162144   6.511   4.535   1.867
19099SOL    HW262145   6.484   4.502   1.721
19100SOL     OW62146   6.291   4.700   0.633
19100SOL    HW162147   6.339   4.692   0.715
19100SOL    HW262148   6.224   4.766   0.650
19101SOL     OW62149   6.316   4.890   1.848
19101SOL    HW162150   6.376   4.953   1.888
19101SOL    HW262151   6.271   4.940   1.780
19102SOL     OW62152   6.008   5.148   1.028
19102SOL    HW162153   6.061   5.152   0.948
19102SOL    HW262154   6.009   5.238   1.061
19103SOL     OW62155   7.052   5.247   1.368
19103SOL    HW162156   7.120   5.312   1.386
19103SOL    HW262157   6.986   5.263   1.436
19104SOL     OW62158   6.010   4.091   1.540
19104SOL    HW162159   6.093   4.045   1.529
19104SOL    HW262160   5.944   4.028   1.512
19105SOL     OW62161   7.149   4.197   0.713
19105SOL    HW162162   7.055   4.182   0.707
19105SOL    HW262163   7.168   4.258   0.642
19106SOL     OW62164   6.726   5.043   1.674
19106SOL    HW162165   6.792   5.021   1.741
19106SOL    HW262166   6.674   4.963   1.665
19107SOL     OW62167   5.830   5.213   0.576
19107SOL    HW162168   5.922   5.222   0.601
19107SOL    HW262169   5.793   5.151   0.639
19108SOL     OW62170   5.880   4.857   0.879
19108SOL    HW162171   5.866   4.773   0.923
19108SOL    HW262172   5.908   4.916   0.949
19109SOL     OW62173   6.200   5.492   1.514
19109SOL    HW162174   6.105   5.499   1.523
19109SOL    HW262175   6.225   5.573   1.469
19110SOL     OW62176   6.145   4.640   0.112
19110SOL    HW162177   6.088   4.712   0.083
19110SOL    HW262178   6.197   4.678   0.183
19111SOL     OW62179   7.159   3.871   1.363
19111SOL    HW162180   7.246   3.865   1.324
19111SOL    HW262181   7.174   3.909   1.450
19112SOL     OW62182   5.690   4.389   0.581
19112SOL    HW162183   5.662   4.301   0.608
19112SOL    HW262184   5.686   4.441   0.661
19113SOL     OW62185   7.467   5.433   0.314
19113SOL    HW162186   7.537   5.410   0.375
19113SOL    HW262187   7.476   5.528   0.302
19114SOL     OW62188   5.511   5.346   0.024
19114SOL    HW162189   5.561   5.268  -0.001
19114SOL    HW262190   5.553   5.376   0.104
19115SOL     OW62191   7.310   4.662   0.685
19115SOL    HW162192   7.393   4.616   0.700
19115SOL    HW262193   7.303   4.671   0.590
19116SOL     OW62194   7.268   4.804   0.435
19116SOL    HW162195   7.351   4.812   0.389
19116SOL    HW262196   7.270   4.873   0.501
19117SOL     OW62197   5.776   4.460   1.595
19117SOL    HW162198   5.871   4.464   1.585
19117SOL    HW262199   5.750   4.551   1.608
19118SOL     OW62200   6.318   5.053   0.691
19118SOL    HW162201   6.257   4.985   0.664
19118SOL    HW262202   6.264   5.119   0.733
19119SOL     OW62203   6.878   4.915   1.408
19119SOL    HW162204   6.911   4.852   1.343
19119SOL    HW262205   6.940   4.910   1.480
19120SOL     OW62206   6.353   3.768   0.492
19120SOL    HW162207   6.415   3.704   0.527
19120SOL    HW262208   6.405   3.849   0.484
19121SOL     OW62209   5.820   4.675   1.275
19121SOL    HW162210   5.911   4.654   1.295
19121SOL    HW262211   5.807   4.646   1.185
19122SOL     OW62212   7.044   4.770   0.279
19122SOL    HW162213   7.006   4.683   0.295
19122SOL    HW262214   7.130   4.766   0.320
19123SOL     OW62215   6.720   5.536   1.656
19123SOL    HW162216   6.722   5.606   1.590
19123SOL    HW262217   6.753   5.459   1.610
19124SOL     OW62218   5.930   4.025   1.884
19124SOL    HW162219   5.982   4.083   1.940
19124SOL    HW262220   5.906   4.079   1.809
19125SOL     OW62221   7.064   5.127   0.935
19125SOL    HW162222   7.001   5.158   1.000
19125SOL    HW262223   7.040   5.036   0.920
19126SOL     OW62224   7.249   5.496   0.591
19126SOL    HW162225   7.229   5.458   0.505
19126SOL    HW262226   7.235   5.424   0.653
19127SOL     OW62227   6.182   4.406   0.296
19127SOL    HW162228   6.192   4.489   0.251
19127SOL    HW262229   6.114   4.422   0.362
19128SOL     OW62230   6.882   4.042   0.923
19128SOL    HW162231   6.869   3.972   0.859
19128SOL    HW262232   6.885   3.997   1.008
19129SOL     OW62233   7.191   5.381   0.346
19129SOL    HW162234   7.285   5.390   0.330
19129SOL    HW262235   7.152   5.374   0.259
19130SOL     OW62236   6.314   4.323   1.429
19130SOL    HW162237   6.313   4.301   1.522
19130SOL    HW262238   6.377   4.263   1.390
19131SOL     OW62239   7.013   4.183   1.661
19131SOL    HW162240   7.076   4.236   1.711
19131SOL    HW262241   7.049   4.094   1.663
19132SOL     OW62242   6.512   4.576   1.560
19132SOL    HW162243   6.560   4.510   1.510
19132SOL    HW262244   6.456   4.619   1.495
19133SOL     OW62245   6.469   4.139   1.261
19133SOL    HW162246   6.469   4.053   1.304
19133SOL    HW262247   6.513   4.124   1.177
19134SOL     OW62248   6.651   4.424   0.411
19134SOL    HW162249   6.674   4.426   0.504
19134SOL    HW262250   6.568   4.377   0.407
19135SOL     OW62251   5.672   4.546   0.809
19135SOL    HW162252   5.748   4.559   0.866
19135SOL    HW262253   5.615   4.620   0.829
19136SOL     OW62254   5.676   5.618   1.580
19136SOL    HW162255   5.677   5.600   1.674
19136SOL    HW262256   5.596   5.576   1.548
19137SOL     OW62257   6.451   4.063   0.220
19137SOL    HW162258   6.444   4.094   0.130
19137SOL    HW262259   6.447   3.967   0.213
19138SOL     OW62260   7.221   4.305   1.823
19138SOL    HW162261   7.235   4.390   1.780
19138SOL    HW262262   7.281   4.245   1.779
19139SOL     OW62263   6.965   4.905   0.508
19139SOL    HW162264   7.049   4.935   0.541
19139SOL    HW262265   6.984   4.868   0.422
19140SOL     OW62266   6.018   3.923   0.868
19140SOL    HW162267   6.081   3.940   0.938
19140SOL    HW262268   6.071   3.894   0.794
19141SOL     OW62269   7.355   4.870   0.868
19141SOL    HW162270   7.352   4.790   0.814
19141SOL    HW262271   7.312   4.845   0.950
19142SOL     OW62272   6.809   5.267   1.516
19142SOL    HW162273   6.801   5.184   1.565
19142SOL    HW262274   6.751   5.256   1.441
19143SOL     OW62275   5.860   4.686   0.260
19143SOL    HW162276   5.896   4.732   0.184
19143SOL    HW262277   5.896   4.598   0.254
19144SOL     OW62278   7.069   4.545   0.741
19144SOL    HW162279   7.073   4.475   0.676
19144SOL    HW262280   7.155   4.587   0.737
19145SOL     OW62281   6.044   5.023   1.754
19145SOL    HW162282   6.024   5.017   1.661
19145SOL    HW262283   5.962   4.998   1.798
19146SOL     OW62284   6.676   5.476   0.147
19146SOL    HW162285   6.598   5.433   0.182
19146SOL    HW262286   6.724   5.406   0.103
19147SOL     OW62287   5.792   3.931   1.484
19147SOL    HW162288   5.712   3.983   1.495
19147SOL    HW262289   5.766   3.842   1.509
19148SOL     OW62290   7.197   5.078   0.094
19148SOL    HW162291   7.166   5.169   0.100
19148SOL    HW262292   7.118   5.026   0.080
19149SOL     OW62293   6.094   5.509   0.372
19149SOL    HW162294   6.121   5.594   0.407
19149SOL    HW262295   6.171   5.476   0.326
19150SOL     OW62296   6.974   3.841   0.379
19150SOL    HW162297   6.899   3.814   0.432
19150SOL    HW262298   7.018   3.759   0.356
19151SOL     OW62299   5.784   5.492   1.188
19151SOL    HW162300   5.872   5.455   1.180
19151SOL    HW262301   5.754   5.501   1.097
19152SOL     OW62302   6.495   5.460   0.927
19152SOL    HW162303   6.549   5.388   0.895
19152SOL    HW262304   6.406   5.427   0.922
19153SOL     OW62305   5.964   4.399   0.482
19153SOL    HW162306   5.972   4.304   0.488
19153SOL    HW262307   5.871   4.417   0.500
19154SOL     OW62308   7.135   3.938   1.736
19154SOL    HW162309   7.113   3.953   1.828
19154SOL    HW262310   7.148   3.844   1.729
19155SOL     OW62311   6.192   3.844   0.107
19155SOL    HW162312   6.282   3.822   0.132
19155SOL    HW262313   6.194   3.846   0.011
19156SOL     OW62314   6.369   4.028   1.759
19156SOL    HW162315   6.445   3.974   1.743
19156SOL    HW262316   6.369   4.042   1.854
19157SOL     OW62317   6.454   5.221   1.248
19157SOL    HW162318   6.418   5.207   1.160
19157SOL    HW262319   6.541   5.182   1.245
19158SOL     OW62320   6.916   4.327   1.437
19158SOL    HW162321   6.957   4.285   1.512
19158SOL    HW262322   6.965   4.408   1.425
19159SOL     OW62323   6.382   5.142   0.992
19159SOL    HW162324   6.456   5.122   0.935
19159SOL    HW262325   6.312   5.171   0.933
19160SOL     OW62326   6.522   4.234   0.912
19160SOL    HW162327   6.493   4.220   0.821
19160SOL    HW262328   6.540   4.145   0.944
19161SOL     OW62329   6.128   3.815   0.645
19161SOL    HW162330   6.062   3.775   0.589
19161SOL    HW262331   6.209   3.808   0.596
19162SOL     OW62332   6.971   4.919   0.056
19162SOL    HW162333   6.997   4.856   0.124
19162SOL    HW262334   6.891   4.958   0.090
19163SOL     OW62335   6.543   3.976   0.494
19163SOL    HW162336   6.559   4.008   0.405
19163SOL    HW262337   6.624   3.930   0.518
19164SOL     OW62338   6.643   4.366   1.401
19164SOL    HW162339   6.619   4.281   1.365
19164SOL    HW262340   6.737   4.359   1.418
19165SOL     OW62341   6.733   5.328   0.818
19165SOL    HW162342   6.769   5.378   0.744
19165SOL    HW262343   6.772   5.370   0.895
19166SOL     OW62344   6.083   4.872   0.676
19166SOL    HW162345   6.019   4.871   0.747
19166SOL    HW262346   6.030   4.879   0.597
19167SOL     OW62347   6.831   5.524   0.627
19167SOL    HW162348   6.880   5.587   0.575
19167SOL    HW262349   6.765   5.576   0.673
19168SOL     OW62350   6.670   4.302   9.991
19168SOL    HW162351   6.593   4.245   9.996
19168SOL    HW262352   6.717   4.287   0.073
19169SOL     OW62353   5.704   4.283   1.395
19169SOL    HW162354   5.792   4.275   1.360
19169SOL    HW262355   5.711   4.350   1.463
19170SOL     OW62356   6.147   3.930   1.115
19170SOL    HW162357   6.190   3.853   1.079
19170SOL    HW262358   6.067   3.896   1.155
19171SOL     OW62359   6.426   4.178   0.658
19171SOL    HW162360   6.412   4.229   0.578
19171SOL    HW262361   6.460   4.094   0.628
19172SOL     OW62362   6.555   3.829   0.768
19172SOL    HW162363   6.636   3.857   0.724
19172SOL    HW262364   6.529   3.750   0.721
19173SOL     OW62365   7.028   4.862   0.863
19173SOL    HW162366   6.950   4.819   0.827
19173SOL    HW262367   7.086   4.874   0.787
19174SOL     OW62368   7.049   4.259   0.979
19174SOL    HW162369   6.989   4.185   0.972
19174SOL    HW262370   7.109   4.247   0.905
19175SOL     OW62371   7.425   4.516   0.369
19175SOL    HW162372   7.480   4.463   0.427
19175SOL    HW262373   7.366   4.452   0.328
19176SOL     OW62374   6.010   5.088   0.116
19176SOL    HW162375   5.943   5.096   0.184
19176SOL    HW262376   6.046   5.176   0.107
19177SOL     OW62377   7.213   4.976   0.651
19177SOL    HW162378   7.273   4.949   0.721
19177SOL    HW262379   7.209   5.072   0.658
19178SOL     OW62380   7.026   4.266   0.097
19178SOL    HW162381   6.943   4.260   0.145
19178SOL    HW262382   7.050   4.175   0.080
19179SOL     OW62383   6.036   3.983   0.293
19179SOL    HW162384   6.100   3.929   0.247
19179SOL    HW262385   6.037   4.067   0.247
19180SOL     OW62386   7.294   4.984   1.532
19180SOL    HW162387   7.368   4.928   1.513
19180SOL    HW262388   7.332   5.060   1.576
19181SOL     OW62389   6.666   5.060   1.328
19181SOL    HW162390   6.591   5.026   1.378
19181SOL    HW262391   6.741   5.012   1.364
19182SOL     OW62392   7.198   5.349   1.673
19182SOL    HW162393   7.199   5.391   1.587
19182SOL    HW262394   7.274   5.291   1.672
19183SOL     OW62395   6.759   4.944   1.090
19183SOL    HW162396   6.706   4.972   1.165
19183SOL    HW262397   6.713   4.979   1.014
19184SOL     OW62398   7.203   4.802   1.088
19184SOL    HW162399   7.191   4.865   1.160
19184SOL    HW262400   7.124   4.811   1.035
19185SOL     OW62401   6.476   3.886   1.372
19185SOL    HW162402   6.497   3.829   1.298
19185SOL    HW262403   6.558   3.891   1.422
19186SOL     OW62404   6.563   4.816   1.705
19186SOL    HW162405   6.474   4.833   1.733
19186SOL    HW262406   6.555   4.742   1.645
19187SOL     OW62407   6.289   4.695   0.345
19187SOL    HW162408   6.287   4.699   0.440
19187SOL    HW262409   6.382   4.692   0.323
19188SOL     OW62410   6.814   4.097   1.304
19188SOL    HW162411   6.866   4.174   1.327
19188SOL    HW262412   6.870   4.047   1.245
19189SOL     OW62413   5.667   5.291   1.353
19189SOL    HW162414   5.671   5.374   1.306
19189SOL    HW262415   5.753   5.252   1.342
19190SOL     OW62416   5.889   4.874   0.470
19190SOL    HW162417   5.884   4.951   0.413
19190SOL    HW262418   5.891   4.800   0.410
19191SOL     OW62419   6.178   4.292   0.864
19191SOL    HW162420   6.160   4.360   0.800
19191SOL    HW262421   6.239   4.233   0.820
19192SOL     OW62422   6.762   5.108   0.446
19192SOL    HW162423   6.823   5.180   0.464
19192SOL    HW262424   6.809   5.029   0.473
19193SOL     OW62425   6.901   5.199   1.145
19193SOL    HW162426   6.953   5.210   1.224
19193SOL    HW262427   6.856   5.115   1.157
19194SOL     OW62428   7.114   4.396   0.510
19194SOL    HW162429   7.038   4.430   0.462
19194SOL    HW262430   7.177   4.372   0.441
19195SOL     OW62431   5.900   5.170   1.290
19195SOL    HW162432   5.911   5.145   1.198
19195SOL    HW262433   5.979   5.220   1.310
19196SOL     OW62434   6.056   4.461   1.593
19196SOL    HW162435   6.084   4.481   1.504
19196SOL    HW262436   6.119   4.397   1.625
19197SOL     OW62437   7.216   4.545   1.692
19197SOL    HW162438   7.126   4.578   1.684
19197SOL    HW262439   7.257   4.567   1.609
19198SOL     OW62440   6.600   3.871   1.795
19198SOL    HW162441   6.664   3.936   1.766
19198SOL    HW262442   6.625   3.791   1.750
19199SOL     OW62443   6.090   3.773   1.841
19199SOL    HW162444   6.060   3.708   1.777
19199SOL    HW262445   6.056   3.856   1.809
19200SOL     OW62446   6.150   4.626   1.020
19200SOL    HW162447   6.202   4.620   0.939
19200SOL    HW262448   6.186   4.701   1.066
19201SOL     OW62449   6.989   4.523   1.010
19201SOL    HW162450   7.011   4.546   0.920
19201SOL    HW262451   6.996   4.427   1.013
19202SOL     OW62452   6.789   4.255   0.239
19202SOL    HW162453   6.832   4.194   0.299
19202SOL    HW262454   6.735   4.310   0.295
19203SOL     OW62455   5.887   3.898   1.225
19203SOL    HW162456   5.860   3.914   1.316
19203SOL    HW262457   5.870   3.805   1.212
19204SOL     OW62458   5.575   5.035   1.280
19204SOL    HW162459   5.632   4.978   1.332
19204SOL    HW262460   5.604   5.124   1.301
19205SOL     OW62461   6.380   4.423   1.052
19205SOL    HW162462   6.418   4.346   1.011
19205SOL    HW262463   6.395   4.493   0.989
19206SOL     OW62464   7.343   4.705   1.880
19206SOL    HW162465   7.301   4.645   1.819
19206SOL    HW262466   7.276   4.722   1.946
19207SOL     OW62467   5.844   3.736   0.563
19207SOL    HW162468   5.835   3.807   0.626
19207SOL    HW262469   5.793   3.664   0.600
19208SOL     OW62470   7.188   4.075   0.359
19208SOL    HW162471   7.227   4.013   0.420
19208SOL    HW262472   7.097   4.082   0.386
19209SOL     OW62473   6.636   4.490   0.927
19209SOL    HW162474   6.702   4.499   0.996
19209SOL    HW262475   6.610   4.398   0.932
19210SOL     OW62476   6.567   5.260   1.707
19210SOL    HW162477   6.556   5.307   1.624
19210SOL    HW262478   6.619   5.183   1.685
19211SOL     OW62479   7.430   5.203   1.643
19211SOL    HW162480   7.469   5.231   1.559
19211SOL    HW262481   7.504   5.171   1.694
19212SOL     OW62482   5.962   4.597   1.819
19212SOL    HW162483   6.033   4.642   1.866
19212SOL    HW262484   6.005   4.558   1.743
19213SOL     OW62485   7.049   3.990   0.104
19213SOL    HW162486   7.012   3.903   0.094
19213SOL    HW262487   7.097   3.987   0.187
19214SOL     OW62488   6.970   4.532   0.061
19214SOL    HW162489   6.984   4.438   0.055
19214SOL    HW262490   7.047   4.571   0.018
19215SOL     OW62491   6.624   5.071   0.875
19215SOL    HW162492   6.626   5.006   0.805
19215SOL    HW262493   6.672   5.146   0.840
19216SOL     OW62494   5.880   4.579   1.004
19216SOL    HW162495   5.972   4.605   0.996
19216SOL    HW262496   5.881   4.484   1.005
19217SOL     OW62497   5.955   4.306   1.020
19217SOL    HW162498   5.889   4.237   1.023
19217SOL    HW262499   6.016   4.279   0.951
19218SOL     OW62500   6.750   4.091   1.715
19218SOL    HW162501   6.702   4.153   1.771
19218SOL    HW262502   6.835   4.132   1.701
19219SOL     OW62503   6.719   3.926   1.495
19219SOL    HW162504   6.733   3.985   1.569
19219SOL    HW262505   6.756   3.972   1.419
19220SOL     OW62506   5.580   5.023   0.249
19220SOL    HW162507   5.509   5.039   0.186
19220SOL    HW262508   5.589   4.928   0.250
19221SOL     OW62509   5.663   5.509   0.934
19221SOL    HW162510   5.637   5.423   0.901
19221SOL    HW262511   5.715   5.547   0.864
19222SOL     OW62512   6.529   4.561   1.241
19222SOL    HW162513   6.581   4.499   1.291
19222SOL    HW262514   6.481   4.508   1.178
19223SOL     OW62515   5.552   4.284   1.164
19223SOL    HW162516   5.603   4.238   1.098
19223SOL    HW262517   5.613   4.294   1.238
19224SOL     OW62518   5.833   4.215   1.713
19224SOL    HW162519   5.897   4.184   1.649
19224SOL    HW262520   5.798   4.295   1.674
19225SOL     OW62521   6.954   4.635   1.662
19225SOL    HW162522   6.973   4.729   1.660
19225SOL    HW262523   6.957   4.607   1.571
19226SOL     OW62524   6.414   4.281   0.393
19226SOL    HW162525   6.425   4.203   0.339
19226SOL    HW262526   6.336   4.324   0.358
19227SOL     OW62527   5.805   5.261   1.720
19227SOL    HW162528   5.780   5.273   1.812
19227SOL    HW262529   5.846   5.175   1.718
19228SOL     OW62530   6.206   4.186   1.177
19228SOL    HW162531   6.183   4.097   1.148
19228SOL    HW262532   6.296   4.178   1.208
19229SOL     OW62533   6.500   5.380   1.471
19229SOL    HW162534   6.476   5.333   1.391
19229SOL    HW262535   6.485   5.472   1.449
19230SOL     OW62536   6.037   4.220   0.153
19230SOL    HW162537   6.106   4.274   0.192
19230SOL    HW262538   5.958   4.273   0.162
19231SOL     OW62539   5.701   4.846   1.459
19231SOL    HW162540   5.716   4.798   1.541
19231SOL    HW262541   5.733   4.787   1.391
19232SOL     OW62542   6.919   4.728   1.194
19232SOL    HW162543   6.938   4.662   1.127
19232SOL    HW262544   6.865   4.793   1.149
19233SOL     OW62545   6.921   4.522   0.340
19233SOL    HW162546   6.830   4.496   0.357
19233SOL    HW262547   6.931   4.511   0.245
19234SOL     OW62548   7.319   5.431   1.133
19234SOL    HW162549   7.396   5.460   1.085
19234SOL    HW262550   7.312   5.337   1.112
19235SOL     OW62551   6.839   5.458   1.067
19235SOL    HW162552   6.924   5.502   1.061
19235SOL    HW262553   6.860   5.371   1.100
19236SOL     OW62554   5.559   5.037   1.002
19236SOL    HW162555   5.574   5.024   1.096
19236SOL    HW262556   5.569   4.950   0.963
19237SOL     OW62557   6.316   5.384   1.741
19237SOL    HW162558   6.279   5.427   1.664
19237SOL    HW262559   6.409   5.374   1.722
19238SOL     OW62560   6.456   3.780   0.173
19238SOL    HW162561   6.538   3.768   0.125
19238SOL    HW262562   6.448   3.701   0.227
19239SOL     OW62563   7.309   3.905   0.550
19239SOL    HW162564   7.359   3.849   0.491
19239SOL    HW262565   7.257   3.843   0.602
19240SOL     OW62566   6.970   5.302   0.518
19240SOL    HW162567   7.034   5.333   0.454
19240SOL    HW262568   6.925   5.382   0.547
19241SOL     OW62569   5.686   5.547   1.844
19241SOL    HW162570   5.674   5.455   1.869
19241SOL    HW262571   5.752   5.580   1.905
19242SOL     OW62572   6.862   4.709   0.674
19242SOL    HW162573   6.936   4.652   0.693
19242SOL    HW262574   6.894   4.768   0.606
19243SOL     OW62575   6.410   5.007   1.428
19243SOL    HW162576   6.368   5.037   1.509
19243SOL    HW262577   6.397   5.078   1.366
19244SOL     OW62578   6.161   5.315   0.088
19244SOL    HW162579   6.217   5.368   0.145
19244SOL    HW262580   6.223   5.266   0.034
19245SOL     OW62581   7.257   5.445   1.412
19245SOL    HW162582   7.276   5.444   1.318
19245SOL    HW262583   7.333   5.488   1.452
19246SOL     OW62584   7.394   3.883   0.984
19246SOL    HW162585   7.430   3.798   0.956
19246SOL    HW262586   7.313   3.891   0.934
19247SOL     OW62587   5.809   3.971   0.706
19247SOL    HW162588   5.737   4.014   0.752
19247SOL    HW262589   5.878   3.963   0.772
19248SOL     OW62590   6.825   5.274   0.025
19248SOL    HW162591   6.799   5.194   0.071
19248SOL    HW262592   6.820   5.252   9.933
19249SOL     OW62593   6.361   4.731   1.377
19249SOL    HW162594   6.426   4.703   1.313
19249SOL    HW262595   6.374   4.826   1.385
19250SOL     OW62596   6.560   4.668   0.301
19250SOL    HW162597   6.614   4.683   0.224
19250SOL    HW262598   6.591   4.585   0.336
19251SOL     OW62599   7.073   5.364   0.095
19251SOL    HW162600   6.986   5.332   0.071
19251SOL    HW262601   7.109   5.399   0.013
19252SOL     OW62602   5.917   5.015   1.516
19252SOL    HW162603   5.931   5.070   1.439
19252SOL    HW262604   5.846   4.956   1.491
19253SOL     OW62605   7.166   5.004   1.280
19253SOL    HW162606   7.221   4.987   1.357
19253SOL    HW262607   7.119   5.085   1.302
19254SOL     OW62608   6.630   4.862   0.695
19254SOL    HW162609   6.571   4.825   0.629
19254SOL    HW262610   6.707   4.805   0.692
19255SOL     OW62611   6.545   3.974   1.005
19255SOL    HW162612   6.542   3.932   0.919
19255SOL    HW262613   6.566   3.904   1.066
19256SOL     OW62614   6.176   5.104   0.424
19256SOL    HW162615   6.109   5.115   0.356
19256SOL    HW262616   6.140   5.150   0.500
19257SOL     OW62617   7.416   4.116   1.344
19257SOL    HW162618   7.481   4.111   1.414
19257SOL    HW262619   7.416   4.028   1.305
19258SOL     OW62620   5.831   5.104   0.324
19258SOL    HW162621   5.741   5.089   0.296
19258SOL    HW262622   5.824   5.157   0.403
19259SOL     OW62623   5.736   4.724   1.711
19259SOL    HW162624   5.658   4.700   1.762
19259SOL    HW262625   5.809   4.686   1.760
19260SOL     OW62626   6.245   3.939   1.523
19260SOL    HW162627   6.317   3.922   1.462
19260SOL    HW262628   6.288   3.969   1.603
19261SOL     OW62629   5.591   4.154   9.973
19261SOL    HW162630   5.538   4.094   9.921
19261SOL    HW262631   5.676   4.111   9.981
19262SOL     OW62632   7.035   4.578   1.405
19262SOL    HW162633   6.999   4.629   1.332
19262SOL    HW262634   7.130   4.593   1.400
19263SOL     OW62635   5.672   3.915   0.424
19263SOL    HW162636   5.708   3.935   0.338
19263SOL    HW262637   5.737   3.858   0.465
19264SOL     OW62638   6.750   5.050   0.161
19264SOL    HW162639   6.660   5.049   0.129
19264SOL    HW262640   6.742   5.063   0.255
19265SOL     OW62641   6.177   4.528   1.323
19265SOL    HW162642   6.228   4.608   1.339
19265SOL    HW262643   6.231   4.458   1.361
19266SOL     OW62644   7.095   5.579   1.053
19266SOL    HW162645   7.136   5.631   0.983
19266SOL    HW262646   7.167   5.526   1.088
19267SOL     OW62647   6.277   4.295   1.703
19267SOL    HW162648   6.339   4.350   1.750
19267SOL    HW262649   6.304   4.206   1.723
19268SOL     OW62650   7.050   4.892   1.625
19268SOL    HW162651   7.049   4.917   1.717
19268SOL    HW262652   7.135   4.923   1.593
19269SOL     OW62653   5.928   5.478   1.587
19269SOL    HW162654   5.853   5.530   1.561
19269SOL    HW262655   5.891   5.397   1.621
19270SOL     OW62656   7.236   4.499   1.164
19270SOL    HW162657   7.154   4.496   1.115
19270SOL    HW262658   7.263   4.591   1.158
19271SOL     OW62659   6.915   4.106   0.431
19271SOL    HW162660   6.919   4.010   0.426
19271SOL    HW262661   6.897   4.124   0.523
19272SOL     OW62662   6.117   4.493   0.695
19272SOL    HW162663   6.178   4.558   0.659
19272SOL    HW262664   6.063   4.467   0.620
19273SOL     OW62665   7.355   4.110   1.684
19273SOL    HW162666   7.432   4.076   1.640
19273SOL    HW262667   7.297   4.034   1.693
19274SOL     OW62668   7.318   4.615   1.444
19274SOL    HW162669   7.366   4.698   1.447
19274SOL    HW262670   7.382   4.551   1.411
19275SOL     OW62671   6.507   5.117   0.034
19275SOL    HW162672   6.417   5.088   0.015
19275SOL    HW262673   6.496   5.185   0.101
19276SOL     OW62674   6.404   4.657   0.892
19276SOL    HW162675   6.497   4.634   0.891
19276SOL    HW262676   6.399   4.734   0.948
19277SOL     OW62677   6.733   4.679   0.083
19277SOL    HW162678   6.717   4.711   9.994
19277SOL    HW262679   6.813   4.626   0.076
19278SOL     OW62680   7.443   5.250   0.817
19278SOL    HW162681   7.362   5.257   0.767
19278SOL    HW262682   7.417   5.211   0.901
19279SOL     OW62683   5.788   4.980   1.825
19279SOL    HW162684   5.760   4.904   1.774
19279SOL    HW262685   5.717   4.995   1.887
19280SOL     OW62686   5.715   4.951   0.675
19280SOL    HW162687   5.765   4.917   0.750
19280SOL    HW262688   5.765   4.922   0.599
19281SOL     OW62689   6.285   5.112   1.655
19281SOL    HW162690   6.194   5.101   1.683
19281SOL    HW262691   6.304   5.204   1.671
19282SOL     OW62692   7.408   3.853   1.256
19282SOL    HW162693   7.473   3.786   1.274
19282SOL    HW262694   7.407   3.862   1.161
19283SOL     OW62695   5.951   4.127   0.514
19283SOL    HW162696   5.988   4.071   0.447
19283SOL    HW262697   5.912   4.067   0.577
19284SOL     OW62698   7.316   5.168   1.053
19284SOL    HW162699   7.229   5.138   1.026
19284SOL    HW262700   7.340   5.110   1.125
19285SOL     OW62701   5.960   4.276   1.310
19285SOL    HW162702   6.022   4.228   1.365
19285SOL    HW262703   5.977   4.245   1.222
19286SOL     OW62704   6.972   3.912   1.161
19286SOL    HW162705   6.984   3.832   1.110
19286SOL    HW262706   7.035   3.904   1.233
19287SOL     OW62707   6.585   3.741   1.158
19287SOL    HW162708   6.532   3.684   1.102
19287SOL    HW262709   6.674   3.709   1.149
19288SOL     OW62710   6.146   5.284   1.325
19288SOL    HW162711   6.191   5.344   1.385
19288SOL    HW262712   6.124   5.337   1.249
19289SOL     OW62713   6.952   3.695   0.079
19289SOL    HW162714   7.021   3.672   0.141
19289SOL    HW262715   6.873   3.658   0.117
19290SOL     OW62716   6.874   4.205   0.689
19290SOL    HW162717   6.819   4.284   0.686
19290SOL    HW262718   6.843   4.157   0.766
19291SOL     OW62719   7.153   3.930   0.855
19291SOL    HW162720   7.059   3.943   0.860
19291SOL    HW262721   7.183   3.991   0.787
19292SOL     OW62722   5.597   4.746   0.302
19292SOL    HW162723   5.692   4.739   0.296
19292SOL    HW262724   5.568   4.657   0.325
19293SOL     OW62725   5.845   4.408   1.982
19293SOL    HW162726   5.788   4.351   1.930
19293SOL    HW262727   5.884   4.467   1.919
19294SOL     OW62728   5.790   4.053   2.869
19294SOL    HW162729   5.837   4.012   2.941
19294SOL    HW262730   5.717   3.994   2.850
19295SOL     OW62731   5.587   4.121   2.502
19295SOL    HW162732   5.509   4.141   2.554
19295SOL    HW262733   5.559   4.051   2.443
19296SOL     OW62734   6.172   5.030   2.954
19296SOL    HW162735   6.118   5.006   2.880
19296SOL    HW262736   6.248   5.075   2.916
19297SOL     OW62737   7.126   5.256   2.539
19297SOL    HW162738   7.186   5.328   2.519
19297SOL    HW262739   7.074   5.246   2.460
19298SOL     OW62740   6.738   4.410   2.550
19298SOL    HW162741   6.789   4.490   2.536
19298SOL    HW262742   6.666   4.438   2.607
19299SOL     OW62743   7.317   4.280   2.086
19299SOL    HW162744   7.281   4.301   2.000
19299SOL    HW262745   7.379   4.209   2.070
19300SOL     OW62746   6.394   4.848   2.957
19300SOL    HW162747   6.314   4.898   2.974
19300SOL    HW262748   6.454   4.912   2.918
19301SOL     OW62749   6.460   4.483   3.665
19301SOL    HW162750   6.497   4.535   3.736
19301SOL    HW262751   6.510   4.511   3.587
19302SOL     OW62752   6.274   4.703   2.529
19302SOL    HW162753   6.330   4.690   2.606
19302SOL    HW262754   6.216   4.776   2.554
19303SOL     OW62755   6.303   4.884   3.678
19303SOL    HW162756   6.346   4.957   3.722
19303SOL    HW262757   6.228   4.923   3.633
19304SOL     OW62758   5.914   5.177   2.993
19304SOL    HW162759   5.836   5.141   2.950
19304SOL    HW262760   5.965   5.216   2.923
19305SOL     OW62761   6.986   5.273   3.209
19305SOL    HW162762   7.035   5.354   3.224
19305SOL    HW262763   7.050   5.203   3.224
19306SOL     OW62764   5.978   4.111   3.474
19306SOL    HW162765   6.067   4.097   3.443
19306SOL    HW262766   5.923   4.059   3.415
19307SOL     OW62767   7.151   4.219   2.605
19307SOL    HW162768   7.172   4.229   2.512
19307SOL    HW262769   7.236   4.224   2.649
19308SOL     OW62770   5.820   5.449   2.309
19308SOL    HW162771   5.847   5.516   2.371
19308SOL    HW262772   5.894   5.439   2.249
19309SOL     OW62773   6.744   5.050   3.515
19309SOL    HW162774   6.833   5.018   3.526
19309SOL    HW262775   6.688   4.977   3.542
19310SOL     OW62776   5.753   5.194   2.384
19310SOL    HW162777   5.773   5.285   2.361
19310SOL    HW262778   5.748   5.194   2.479
19311SOL     OW62779   5.860   4.794   2.747
19311SOL    HW162780   5.876   4.700   2.756
19311SOL    HW262781   5.838   4.823   2.836
19312SOL     OW62782   6.139   5.579   3.262
19312SOL    HW162783   6.080   5.547   3.331
19312SOL    HW262784   6.188   5.649   3.304
19313SOL     OW62785   6.145   4.725   2.004
19313SOL    HW162786   6.200   4.773   1.942
19313SOL    HW262787   6.184   4.743   2.090
19314SOL     OW62788   7.165   3.875   3.245
19314SOL    HW162789   7.253   3.896   3.215
19314SOL    HW262790   7.162   3.905   3.336
19315SOL     OW62791   5.697   4.378   2.436
19315SOL    HW162792   5.671   4.288   2.452
19315SOL    HW262793   5.690   4.421   2.521
19316SOL     OW62794   7.441   5.554   2.249
19316SOL    HW162795   7.532   5.554   2.278
19316SOL    HW262796   7.437   5.487   2.181
19317SOL     OW62797   5.670   5.293   1.966
19317SOL    HW162798   5.650   5.203   1.993
19317SOL    HW262799   5.639   5.347   2.038
19318SOL     OW62800   7.290   4.569   2.494
19318SOL    HW162801   7.378   4.554   2.529
19318SOL    HW262802   7.304   4.590   2.402
19319SOL     OW62803   7.224   4.842   2.302
19319SOL    HW162804   7.310   4.832   2.262
19319SOL    HW262805   7.240   4.889   2.384
19320SOL     OW62806   5.714   4.455   3.429
19320SOL    HW162807   5.801   4.492   3.439
19320SOL    HW262808   5.657   4.530   3.415
19321SOL     OW62809   6.172   5.123   2.622
19321SOL    HW162810   6.140   5.035   2.600
19321SOL    HW262811   6.178   5.168   2.538
19322SOL     OW62812   6.905   4.930   3.271
19322SOL    HW162813   6.982   4.964   3.225
19322SOL    HW262814   6.935   4.914   3.360
19323SOL     OW62815   6.384   3.760   2.337
19323SOL    HW162816   6.451   3.826   2.315
19323SOL    HW262817   6.303   3.811   2.346
19324SOL     OW62818   5.779   4.684   3.189
19324SOL    HW162819   5.867   4.647   3.193
19324SOL    HW262820   5.727   4.621   3.139
19325SOL     OW62821   7.097   4.742   2.073
19325SOL    HW162822   7.030   4.683   2.107
19325SOL    HW262823   7.144   4.772   2.150
19326SOL     OW62824   6.680   5.562   3.462
19326SOL    HW162825   6.720   5.633   3.412
19326SOL    HW262826   6.735   5.486   3.445
19327SOL     OW62827   5.925   3.964   3.706
19327SOL    HW162828   5.948   4.023   3.635
19327SOL    HW262829   5.831   3.977   3.719
19328SOL     OW62830   7.065   5.210   2.797
19328SOL    HW162831   7.146   5.218   2.847
19328SOL    HW262832   7.091   5.223   2.706
19329SOL     OW62833   7.298   5.460   2.471
19329SOL    HW162834   7.322   5.484   2.382
19329SOL    HW262835   7.380   5.428   2.510
19330SOL     OW62836   6.193   4.425   2.157
19330SOL    HW162837   6.206   4.513   2.121
19330SOL    HW262838   6.123   4.435   2.221
19331SOL     OW62839   6.850   4.088   2.879
19331SOL    HW162840   6.855   4.076   2.784
19331SOL    HW262841   6.910   4.023   2.914
19332SOL     OW62842   7.171   5.379   2.143
19332SOL    HW162843   7.263   5.358   2.129
19332SOL    HW262844   7.134   5.390   2.055
19333SOL     OW62845   6.310   4.397   3.349
19333SOL    HW162846   6.291   4.351   3.431
19333SOL    HW262847   6.273   4.341   3.281
19334SOL     OW62848   7.021   4.171   3.498
19334SOL    HW162849   7.094   4.220   3.537
19334SOL    HW262850   7.054   4.082   3.490
19335SOL     OW62851   6.639   4.592   3.461
19335SOL    HW162852   6.657   4.499   3.450
19335SOL    HW262853   6.725   4.633   3.470
19336SOL     OW62854   6.447   4.096   3.063
19336SOL    HW162855   6.454   4.020   3.122
19336SOL    HW262856   6.534   4.136   3.066
19337SOL     OW62857   6.648   4.469   2.292
19337SOL    HW162858   6.687   4.436   2.373
19337SOL    HW262859   6.585   4.401   2.267
19338SOL     OW62860   5.638   4.575   2.667
19338SOL    HW162861   5.723   4.549   2.702
19338SOL    HW262862   5.612   4.651   2.720
19339SOL     OW62863   5.680   5.589   3.444
19339SOL    HW162864   5.689   5.559   3.534
19339SOL    HW262865   5.650   5.512   3.395
19340SOL     OW62866   6.506   3.998   2.018
19340SOL    HW162867   6.538   4.084   1.989
19340SOL    HW262868   6.546   3.935   1.958
19341SOL     OW62869   7.231   4.319   3.695
19341SOL    HW162870   7.244   4.402   3.649
19341SOL    HW262871   7.280   4.255   3.643
19342SOL     OW62872   6.953   4.870   2.380
19342SOL    HW162873   7.041   4.861   2.343
19342SOL    HW262874   6.909   4.933   2.323
19343SOL     OW62875   6.572   5.175   2.312
19343SOL    HW162876   6.553   5.246   2.250
19343SOL    HW262877   6.542   5.208   2.396
19344SOL     OW62878   5.939   5.535   2.752
19344SOL    HW162879   5.980   5.449   2.764
19344SOL    HW262880   6.010   5.597   2.763
19345SOL     OW62881   7.310   4.700   2.749
19345SOL    HW162882   7.283   4.696   2.658
19345SOL    HW262883   7.395   4.656   2.751
19346SOL     OW62884   6.775   5.304   3.387
19346SOL    HW162885   6.778   5.219   3.430
19346SOL    HW262886   6.847   5.303   3.325
19347SOL     OW62887   5.897   4.663   2.125
19347SOL    HW162888   5.976   4.690   2.079
19347SOL    HW262889   5.883   4.572   2.099
19348SOL     OW62890   7.062   4.494   2.623
19348SOL    HW162891   7.082   4.401   2.634
19348SOL    HW262892   7.141   4.531   2.583
19349SOL     OW62893   6.049   4.972   3.600
19349SOL    HW162894   6.028   4.882   3.577
19349SOL    HW262895   5.970   5.004   3.645
19350SOL     OW62896   6.729   5.484   2.091
19350SOL    HW162897   6.644   5.452   2.119
19350SOL    HW262898   6.754   5.426   2.019
19351SOL     OW62899   5.792   3.959   3.336
19351SOL    HW162900   5.705   3.990   3.313
19351SOL    HW262901   5.778   3.871   3.371
19352SOL     OW62902   7.225   5.104   1.946
19352SOL    HW162903   7.206   5.183   1.895
19352SOL    HW262904   7.153   5.044   1.926
19353SOL     OW62905   6.060   5.449   2.171
19353SOL    HW162906   6.109   5.517   2.219
19353SOL    HW262907   6.122   5.418   2.105
19354SOL     OW62908   7.046   3.737   2.291
19354SOL    HW162909   7.004   3.738   2.205
19354SOL    HW262910   7.068   3.828   2.308
19355SOL     OW62911   5.920   5.467   3.114
19355SOL    HW162912   6.003   5.496   3.154
19355SOL    HW262913   5.946   5.406   3.045
19356SOL     OW62914   6.550   5.383   2.724
19356SOL    HW162915   6.639   5.348   2.720
19356SOL    HW262916   6.507   5.346   2.646
19357SOL     OW62917   5.978   4.396   2.341
19357SOL    HW162918   5.999   4.304   2.360
19357SOL    HW262919   5.883   4.401   2.352
19358SOL     OW62920   7.124   3.915   3.535
19358SOL    HW162921   7.106   3.933   3.627
19358SOL    HW262922   7.199   3.857   3.536
19359SOL     OW62923   6.265   3.799   2.051
19359SOL    HW162924   6.347   3.832   2.015
19359SOL    HW262925   6.213   3.777   1.973
19360SOL     OW62926   6.340   4.019   3.647
19360SOL    HW162927   6.423   3.978   3.623
19360SOL    HW262928   6.290   3.950   3.689
19361SOL     OW62929   6.450   5.190   3.088
19361SOL    HW162930   6.450   5.191   2.992
19361SOL    HW262931   6.535   5.153   3.112
19362SOL     OW62932   6.898   4.312   3.282
19362SOL    HW162933   6.955   4.263   3.341
19362SOL    HW262934   6.955   4.380   3.244
19363SOL     OW62935   6.388   5.116   2.813
19363SOL    HW162936   6.477   5.108   2.779
19363SOL    HW262937   6.334   5.134   2.736
19364SOL     OW62938   6.537   4.218   2.749
19364SOL    HW162939   6.513   4.205   2.657
19364SOL    HW262940   6.564   4.132   2.779
19365SOL     OW62941   6.095   3.728   2.303
19365SOL    HW162942   6.031   3.725   2.374
19365SOL    HW262943   6.079   3.813   2.261
19366SOL     OW62944   7.010   4.935   1.894
19366SOL    HW162945   7.038   4.864   1.952
19366SOL    HW262946   6.926   4.963   1.931
19367SOL     OW62947   5.849   3.788   1.996
19367SOL    HW162948   5.877   3.871   1.958
19367SOL    HW262949   5.926   3.732   1.988
19368SOL     OW62950   6.555   3.977   2.295
19368SOL    HW162951   6.543   3.985   2.200
19368SOL    HW262952   6.648   3.994   2.308
19369SOL     OW62953   6.646   4.338   3.385
19369SOL    HW162954   6.640   4.258   3.437
19369SOL    HW262955   6.730   4.331   3.340
19370SOL     OW62956   6.810   5.289   2.656
19370SOL    HW162957   6.835   5.353   2.589
19370SOL    HW262958   6.892   5.262   2.695
19371SOL     OW62959   6.058   4.877   2.571
19371SOL    HW162960   5.991   4.848   2.632
19371SOL    HW262961   6.017   4.868   2.485
19372SOL     OW62962   6.864   5.511   2.472
19372SOL    HW162963   6.931   5.571   2.437
19372SOL    HW262964   6.783   5.561   2.468
19373SOL     OW62965   6.589   4.234   1.905
19373SOL    HW162966   6.558   4.319   1.874
19373SOL    HW262967   6.651   4.255   1.975
19374SOL     OW62968   5.703   4.260   3.232
19374SOL    HW162969   5.796   4.255   3.208
19374SOL    HW262970   5.701   4.323   3.304
19375SOL     OW62971   6.177   3.899   3.065
19375SOL    HW162972   6.194   3.829   3.128
19375SOL    HW262973   6.083   3.916   3.072
19376SOL     OW62974   6.441   4.155   2.493
19376SOL    HW162975   6.426   4.219   2.424
19376SOL    HW262976   6.480   4.079   2.449
19377SOL     OW62977   6.475   3.765   2.603
19377SOL    HW162978   6.462   3.750   2.510
19377SOL    HW262979   6.518   3.685   2.634
19378SOL     OW62980   7.012   4.928   2.651
19378SOL    HW162981   6.966   4.906   2.570
19378SOL    HW262982   7.103   4.943   2.624
19379SOL     OW62983   6.956   4.331   2.960
19379SOL    HW162984   6.935   4.243   2.929
19379SOL    HW262985   7.050   4.329   2.977
19380SOL     OW62986   7.375   4.522   2.226
19380SOL    HW162987   7.439   4.478   2.283
19380SOL    HW262988   7.355   4.457   2.159
19381SOL     OW62989   6.084   5.141   2.010
19381SOL    HW162990   6.013   5.104   2.063
19381SOL    HW262991   6.078   5.094   1.927
19382SOL     OW62992   7.261   4.980   2.545
19382SOL    HW162993   7.351   4.949   2.548
19382SOL    HW262994   7.268   5.076   2.547
19383SOL     OW62995   6.986   4.260   1.962
19383SOL    HW162996   6.995   4.165   1.968
19383SOL    HW262997   7.070   4.290   1.927
19384SOL     OW62998   6.105   3.982   2.193
19384SOL    HW162999   6.166   3.934   2.137
19384SOL    HW263000   6.082   4.060   2.142
19385SOL     OW63001   7.281   5.004   3.474
19385SOL    HW163002   7.343   4.932   3.463
19385SOL    HW263003   7.333   5.083   3.462
19386SOL     OW63004   6.661   5.034   3.202
19386SOL    HW163005   6.619   5.033   3.288
19386SOL    HW263006   6.745   4.990   3.215
19387SOL     OW63007   7.168   5.349   3.499
19387SOL    HW163008   7.160   5.406   3.423
19387SOL    HW263009   7.258   5.316   3.495
19388SOL     OW63010   7.227   4.910   2.899
19388SOL    HW163011   7.308   4.958   2.916
19388SOL    HW263012   7.254   4.834   2.847
19389SOL     OW63013   6.470   3.867   3.201
19389SOL    HW163014   6.497   3.793   3.146
19389SOL    HW263015   6.548   3.887   3.253
19390SOL     OW63016   6.566   4.844   3.570
19390SOL    HW163017   6.477   4.847   3.606
19390SOL    HW263018   6.573   4.757   3.531
19391SOL     OW63019   6.269   4.751   2.251
19391SOL    HW163020   6.268   4.731   2.344
19391SOL    HW263021   6.357   4.727   2.222
19392SOL     OW63022   6.015   4.547   3.185
19392SOL    HW163023   6.070   4.581   3.114
19392SOL    HW263024   6.001   4.455   3.163
19393SOL     OW63025   6.718   4.195   3.096
19393SOL    HW163026   6.791   4.235   3.143
19393SOL    HW263027   6.758   4.157   3.017
19394SOL     OW63028   5.692   5.359   3.234
19394SOL    HW163029   5.632   5.390   3.166
19394SOL    HW263030   5.778   5.386   3.203
19395SOL     OW63031   5.897   4.845   2.344
19395SOL    HW163032   5.900   4.919   2.284
19395SOL    HW263033   5.905   4.768   2.287
19396SOL     OW63034   6.220   4.137   2.761
19396SOL    HW163035   6.238   4.135   2.667
19396SOL    HW263036   6.256   4.221   2.790
19397SOL     OW63037   6.820   5.074   2.241
19397SOL    HW163038   6.880   5.146   2.260
19397SOL    HW263039   6.736   5.104   2.274
19398SOL     OW63040   6.866   5.113   3.017
19398SOL    HW163041   6.909   5.174   3.077
19398SOL    HW263042   6.787   5.086   3.062
19399SOL     OW63043   7.206   4.285   2.340
19399SOL    HW163044   7.229   4.373   2.368
19399SOL    HW263045   7.244   4.276   2.253
19400SOL     OW63046   5.995   4.495   3.461
19400SOL    HW163047   6.020   4.518   3.372
19400SOL    HW263048   6.055   4.425   3.486
19401SOL     OW63049   7.209   4.564   3.559
19401SOL    HW163050   7.121   4.581   3.527
19401SOL    HW263051   7.266   4.603   3.492
19402SOL     OW63052   6.570   3.893   3.578
19402SOL    HW163053   6.645   3.952   3.569
19402SOL    HW263054   6.599   3.811   3.538
19403SOL     OW63055   6.116   3.785   3.621
19403SOL    HW163056   6.085   3.719   3.559
19403SOL    HW263057   6.039   3.839   3.638
19404SOL     OW63058   6.138   4.624   2.947
19404SOL    HW163059   6.227   4.643   2.918
19404SOL    HW263060   6.097   4.580   2.873
19405SOL     OW63061   6.887   4.555   2.831
19405SOL    HW163062   6.946   4.550   2.755
19405SOL    HW263063   6.913   4.480   2.885
19406SOL     OW63064   6.757   4.232   2.119
19406SOL    HW163065   6.781   4.178   2.195
19406SOL    HW263066   6.841   4.254   2.078
19407SOL     OW63067   5.903   3.926   3.084
19407SOL    HW163068   5.874   3.948   3.172
19407SOL    HW263069   5.887   3.832   3.076
19408SOL     OW63070   5.645   5.078   3.146
19408SOL    HW163071   5.674   5.013   3.210
19408SOL    HW263072   5.688   5.159   3.172
19409SOL     OW63073   6.331   4.363   2.869
19409SOL    HW163074   6.414   4.322   2.843
19409SOL    HW263075   6.340   4.454   2.842
19410SOL     OW63076   7.346   4.675   3.777
19410SOL    HW163077   7.306   4.631   3.702
19410SOL    HW263078   7.272   4.695   3.835
19411SOL     OW63079   5.913   3.753   2.511
19411SOL    HW163080   5.882   3.841   2.532
19411SOL    HW263081   5.942   3.717   2.594
19412SOL     OW63082   7.110   4.023   2.287
19412SOL    HW163083   7.192   3.979   2.311
19412SOL    HW263084   7.127   4.116   2.300
19413SOL     OW63085   6.623   4.478   2.816
19413SOL    HW163086   6.713   4.508   2.817
19413SOL    HW263087   6.628   4.384   2.797
19414SOL     OW63088   6.555   5.231   3.600
19414SOL    HW163089   6.532   5.288   3.526
19414SOL    HW263090   6.622   5.172   3.565
19415SOL     OW63091   7.422   5.240   3.447
19415SOL    HW163092   7.467   5.269   3.368
19415SOL    HW263093   7.486   5.256   3.517
19416SOL     OW63094   5.950   4.699   3.644
19416SOL    HW163095   6.012   4.697   3.717
19416SOL    HW263096   5.972   4.622   3.591
19417SOL     OW63097   7.042   3.988   2.006
19417SOL    HW163098   6.999   3.903   2.013
19417SOL    HW263099   7.084   4.001   2.091
19418SOL     OW63100   6.855   4.508   1.891
19418SOL    HW163101   6.900   4.424   1.900
19418SOL    HW263102   6.893   4.547   1.812
19419SOL     OW63103   6.633   5.070   2.712
19419SOL    HW163104   6.650   4.988   2.667
19419SOL    HW263105   6.703   5.128   2.683
19420SOL     OW63106   5.895   4.518   2.764
19420SOL    HW163107   5.957   4.517   2.691
19420SOL    HW263108   5.907   4.433   2.806
19421SOL     OW63109   5.966   4.262   2.848
19421SOL    HW163110   5.903   4.190   2.843
19421SOL    HW263111   6.047   4.225   2.812
19422SOL     OW63112   6.749   4.120   3.545
19422SOL    HW163113   6.728   4.148   3.634
19422SOL    HW263114   6.843   4.134   3.537
19423SOL     OW63115   6.699   3.981   3.303
19423SOL    HW163116   6.725   4.025   3.384
19423SOL    HW263117   6.733   4.038   3.233
19424SOL     OW63118   5.610   5.020   2.032
19424SOL    HW163119   5.518   5.042   2.018
19424SOL    HW263120   5.609   4.928   2.058
19425SOL     OW63121   5.667   5.500   2.821
19425SOL    HW163122   5.646   5.422   2.770
19425SOL    HW263123   5.758   5.519   2.800
19426SOL     OW63124   6.072   5.298   2.808
19426SOL    HW163125   6.152   5.346   2.830
19426SOL    HW263126   6.100   5.239   2.737
19427SOL     OW63127   6.580   4.440   3.091
19427SOL    HW163128   6.627   4.357   3.097
19427SOL    HW263129   6.594   4.468   3.000
19428SOL     OW63130   5.612   4.254   2.971
19428SOL    HW163131   5.670   4.193   2.925
19428SOL    HW263132   5.649   4.259   3.060
19429SOL     OW63133   5.788   4.259   3.616
19429SOL    HW163134   5.859   4.217   3.567
19429SOL    HW263135   5.752   4.324   3.555
19430SOL     OW63136   6.917   4.643   3.492
19430SOL    HW163137   6.950   4.731   3.509
19430SOL    HW263138   6.943   4.625   3.401
19431SOL     OW63139   6.424   4.295   2.249
19431SOL    HW163140   6.449   4.237   2.178
19431SOL    HW263141   6.348   4.343   2.217
19432SOL     OW63142   7.221   4.331   3.011
19432SOL    HW163143   7.231   4.270   3.084
19432SOL    HW263144   7.309   4.344   2.978
19433SOL     OW63145   5.827   5.257   3.546
19433SOL    HW163146   5.810   5.330   3.605
19433SOL    HW263147   5.826   5.179   3.602
19434SOL     OW63148   6.235   4.266   3.115
19434SOL    HW163149   6.297   4.193   3.120
19434SOL    HW263150   6.260   4.312   3.035
19435SOL     OW63151   6.464   5.407   3.399
19435SOL    HW163152   6.486   5.377   3.311
19435SOL    HW263153   6.532   5.471   3.420
19436SOL     OW63154   6.042   4.216   2.052
19436SOL    HW163155   6.114   4.274   2.077
19436SOL    HW263156   5.967   4.275   2.039
19437SOL     OW63157   5.719   4.895   3.349
19437SOL    HW163158   5.717   4.856   3.436
19437SOL    HW263159   5.742   4.822   3.291
19438SOL     OW63160   6.977   4.776   2.973
19438SOL    HW163161   7.070   4.756   2.976
19438SOL    HW263162   6.938   4.704   2.925
19439SOL     OW63163   6.882   4.581   2.159
19439SOL    HW163164   6.808   4.543   2.207
19439SOL    HW263165   6.869   4.552   2.068
19440SOL     OW63166   7.279   5.455   3.027
19440SOL    HW163167   7.362   5.495   3.002
19440SOL    HW263168   7.289   5.362   3.004
19441SOL     OW63169   6.900   5.463   2.916
19441SOL    HW163170   6.969   5.411   2.876
19441SOL    HW263171   6.847   5.399   2.965
19442SOL     OW63172   5.665   5.050   2.873
19442SOL    HW163173   5.645   5.057   2.967
19442SOL    HW263174   5.631   4.964   2.848
19443SOL     OW63175   6.274   5.394   3.602
19443SOL    HW163176   6.232   5.480   3.608
19443SOL    HW263177   6.342   5.406   3.535
19444SOL     OW63178   7.341   3.897   2.361
19444SOL    HW163179   7.416   3.904   2.301
19444SOL    HW263180   7.347   3.808   2.395
19445SOL     OW63181   6.972   5.293   2.310
19445SOL    HW163182   7.042   5.321   2.251
19445SOL    HW263183   6.934   5.374   2.343
19446SOL     OW63184   5.743   5.481   3.690
19446SOL    HW163185   5.695   5.420   3.747
19446SOL    HW263186   5.794   5.535   3.750
19447SOL     OW63187   6.862   4.652   2.518
19447SOL    HW163188   6.942   4.610   2.548
19447SOL    HW263189   6.891   4.717   2.454
19448SOL     OW63190   6.288   5.024   3.243
19448SOL    HW163191   6.277   5.070   3.327
19448SOL    HW263192   6.354   5.075   3.196
19449SOL     OW63193   6.263   5.344   2.008
19449SOL    HW163194   6.274   5.366   1.915
19449SOL    HW263195   6.204   5.269   2.008
19450SOL     OW63196   7.140   5.497   3.261
19450SOL    HW163197   7.198   5.488   3.185
19450SOL    HW263198   7.144   5.590   3.282
19451SOL     OW63199   7.408   3.869   2.832
19451SOL    HW163200   7.452   3.786   2.813
19451SOL    HW263201   7.329   3.868   2.778
19452SOL     OW63202   5.830   4.010   2.586
19452SOL    HW163203   5.748   4.047   2.554
19452SOL    HW263204   5.827   4.025   2.681
19453SOL     OW63205   6.790   5.310   1.885
19453SOL    HW163206   6.787   5.216   1.905
19453SOL    HW263207   6.727   5.322   1.814
19454SOL     OW63208   6.408   4.736   3.215
19454SOL    HW163209   6.418   4.760   3.123
19454SOL    HW263210   6.366   4.811   3.255
19455SOL     OW63211   6.517   4.681   2.178
19455SOL    HW163212   6.556   4.686   2.091
19455SOL    HW263213   6.568   4.614   2.223
19456SOL     OW63214   7.050   5.415   1.896
19456SOL    HW163215   6.963   5.378   1.880
19456SOL    HW263216   7.099   5.399   1.816
19457SOL     OW63217   5.914   5.099   3.315
19457SOL    HW163218   5.901   5.157   3.391
19457SOL    HW263219   5.858   5.023   3.334
19458SOL     OW63220   7.153   5.053   3.232
19458SOL    HW163221   7.184   5.037   3.321
19458SOL    HW263222   7.232   5.058   3.179
19459SOL     OW63223   6.653   4.825   2.581
19459SOL    HW163224   6.621   4.824   2.491
19459SOL    HW263225   6.728   4.766   2.581
19460SOL     OW63226   6.532   3.941   2.807
19460SOL    HW163227   6.530   3.896   2.722
19460SOL    HW263228   6.575   3.880   2.866
19461SOL     OW63229   6.183   5.242   2.370
19461SOL    HW163230   6.225   5.168   2.325
19461SOL    HW263231   6.130   5.284   2.302
19462SOL     OW63232   7.286   4.167   3.215
19462SOL    HW163233   7.357   4.217   3.256
19462SOL    HW263234   7.328   4.087   3.183
19463SOL     OW63235   5.858   5.057   2.169
19463SOL    HW163236   5.782   5.051   2.112
19463SOL    HW263237   5.829   5.109   2.244
19464SOL     OW63238   5.693   4.791   3.600
19464SOL    HW163239   5.619   4.758   3.651
19464SOL    HW263240   5.768   4.740   3.629
19465SOL     OW63241   6.235   4.038   3.384
19465SOL    HW163242   6.282   3.976   3.328
19465SOL    HW263243   6.276   4.028   3.470
19466SOL     OW63244   5.626   4.094   1.938
19466SOL    HW163245   5.572   4.082   1.860
19466SOL    HW263246   5.716   4.090   1.905
19467SOL     OW63247   7.001   4.616   3.231
19467SOL    HW163248   6.962   4.682   3.174
19467SOL    HW263249   7.090   4.605   3.199
19468SOL     OW63250   5.623   3.878   2.121
19468SOL    HW163251   5.608   3.952   2.062
19468SOL    HW263252   5.709   3.844   2.094
19469SOL     OW63253   6.761   5.042   1.972
19469SOL    HW163254   6.665   5.038   1.969
19469SOL    HW263255   6.781   5.046   2.065
19470SOL     OW63256   7.149   5.529   2.790
19470SOL    HW163257   7.206   5.528   2.714
19470SOL    HW263258   7.205   5.500   2.862
19471SOL     OW63259   6.266   4.292   3.604
19471SOL    HW163260   6.334   4.349   3.639
19471SOL    HW263261   6.296   4.203   3.623
19472SOL     OW63262   7.012   4.906   3.526
19472SOL    HW163263   7.007   4.914   3.622
19472SOL    HW263264   7.101   4.933   3.505
19473SOL     OW63265   5.953   5.497   3.447
19473SOL    HW163266   5.868   5.540   3.432
19473SOL    HW263267   5.931   5.406   3.464
19474SOL     OW63268   7.252   4.596   3.104
19474SOL    HW163269   7.242   4.506   3.072
19474SOL    HW263270   7.337   4.625   3.069
19475SOL     OW63271   6.827   4.060   2.333
19475SOL    HW163272   6.915   4.032   2.310
19475SOL    HW263273   6.833   4.087   2.424
19476SOL     OW63274   6.079   4.513   2.570
19476SOL    HW163275   6.155   4.567   2.547
19476SOL    HW263276   6.054   4.471   2.487
19477SOL     OW63277   7.353   4.135   3.542
19477SOL    HW163278   7.442   4.170   3.549
19477SOL    HW263279   7.365   4.042   3.523
19478SOL     OW63280   7.329   4.703   3.353
19478SOL    HW163281   7.409   4.753   3.335
19478SOL    HW263282   7.307   4.662   3.270
19479SOL     OW63283   6.477   5.109   1.930
19479SOL    HW163284   6.427   5.172   1.982
19479SOL    HW263285   6.500   5.157   1.850
19480SOL     OW63286   6.297   5.447   2.840
19480SOL    HW163287   6.279   5.536   2.809
19480SOL    HW263288   6.387   5.429   2.812
19481SOL     OW63289   6.391   4.628   2.793
19481SOL    HW163290   6.477   4.588   2.785
19481SOL    HW263291   6.407   4.709   2.842
19482SOL     OW63292   6.630   4.664   1.929
19482SOL    HW163293   6.628   4.729   1.859
19482SOL    HW263294   6.713   4.618   1.917
19483SOL     OW63295   7.463   5.218   2.679
19483SOL    HW163296   7.523   5.236   2.606
19483SOL    HW263297   7.496   5.137   2.717
19484SOL     OW63298   5.792   5.029   3.693
19484SOL    HW163299   5.759   4.947   3.654
19484SOL    HW263300   5.740   5.040   3.773
19485SOL     OW63301   5.695   4.893   2.537
19485SOL    HW163302   5.748   4.861   2.611
19485SOL    HW263303   5.753   4.886   2.461
19486SOL     OW63304   6.197   5.166   3.457
19486SOL    HW163305   6.145   5.110   3.515
19486SOL    HW263306   6.226   5.239   3.512
19487SOL     OW63307   7.399   3.937   3.108
19487SOL    HW163308   7.492   3.929   3.129
19487SOL    HW263309   7.393   3.911   3.016
19488SOL     OW63310   6.014   4.135   2.411
19488SOL    HW163311   6.048   4.073   2.346
19488SOL    HW263312   5.959   4.081   2.468
19489SOL     OW63313   7.306   5.200   2.930
19489SOL    HW163314   7.366   5.190   2.856
19489SOL    HW263315   7.349   5.153   3.002
19490SOL     OW63316   5.960   4.282   3.125
19490SOL    HW163317   6.049   4.254   3.145
19490SOL    HW263318   5.954   4.276   3.029
19491SOL     OW63319   6.415   5.337   2.489
19491SOL    HW163320   6.423   5.424   2.449
19491SOL    HW263321   6.334   5.301   2.453
19492SOL     OW63322   7.038   3.930   3.001
19492SOL    HW163323   7.040   3.838   2.974
19492SOL    HW263324   7.077   3.930   3.088
19493SOL     OW63325   6.567   3.713   2.965
19493SOL    HW163326   6.543   3.644   2.904
19493SOL    HW263327   6.659   3.695   2.987
19494SOL     OW63328   6.323   5.034   2.269
19494SOL    HW163329   6.311   4.942   2.247
19494SOL    HW263330   6.418   5.048   2.264
19495SOL     OW63331   6.199   5.320   3.147
19495SOL    HW163332   6.205   5.407   3.187
19495SOL    HW263333   6.288   5.303   3.115
19496SOL     OW63334   6.939   3.726   2.032
19496SOL    HW163335   6.999   3.682   1.971
19496SOL    HW263336   6.852   3.705   2.000
19497SOL     OW63337   6.874   4.166   2.590
19497SOL    HW163338   6.829   4.249   2.577
19497SOL    HW263339   6.966   4.189   2.595
19498SOL     OW63340   7.150   3.930   2.737
19498SOL    HW163341   7.129   3.957   2.827
19498SOL    HW263342   7.142   4.010   2.686
19499SOL     OW63343   5.637   4.759   2.136
19499SOL    HW163344   5.731   4.748   2.127
19499SOL    HW263345   5.605   4.671   2.157
19500SOL     OW63346   6.477   5.397   2.174
19500SOL    HW163347   6.401   5.384   2.117
19500SOL    HW263348   6.452   5.470   2.231
19501SOL     OW63349   5.814   4.335   3.882
19501SOL    HW163350   5.727   4.319   3.917
19501SOL    HW263351   5.807   4.316   3.789
19502SOL     OW63352   5.806   4.021   4.717
19502SOL    HW163353   5.843   3.979   4.794
19502SOL    HW263354   5.722   3.978   4.704
19503SOL     OW63355   5.592   4.105   4.388
19503SOL    HW163356   5.514   4.117   4.441
19503SOL    HW263357   5.566   4.043   4.320
19504SOL     OW63358   6.157   5.042   4.936
19504SOL    HW163359   6.080   5.045   4.879
19504SOL    HW263360   6.179   5.134   4.951
19505SOL     OW63361   7.150   5.264   4.400
19505SOL    HW163362   7.089   5.251   4.473
19505SOL    HW263363   7.095   5.270   4.323
19506SOL     OW63364   6.735   4.415   4.405
19506SOL    HW163365   6.770   4.499   4.376
19506SOL    HW263366   6.749   4.414   4.500
19507SOL     OW63367   7.373   4.202   3.935
19507SOL    HW163368   7.329   4.252   3.867
19507SOL    HW263369   7.420   4.133   3.888
19508SOL     OW63370   6.302   4.862   4.775
19508SOL    HW163371   6.258   4.905   4.849
19508SOL    HW263372   6.337   4.934   4.723
19509SOL     OW63373   6.482   4.461   5.539
19509SOL    HW163374   6.512   4.528   5.600
19509SOL    HW263375   6.502   4.497   5.452
19510SOL     OW63376   6.261   4.695   4.375
19510SOL    HW163377   6.330   4.692   4.442
19510SOL    HW263378   6.203   4.765   4.404
19511SOL     OW63379   6.298   4.882   5.512
19511SOL    HW163380   6.337   4.958   5.553
19511SOL    HW263381   6.227   4.919   5.458
19512SOL     OW63382   5.925   5.113   4.779
19512SOL    HW163383   5.843   5.091   4.735
19512SOL    HW263384   5.971   5.170   4.716
19513SOL     OW63385   6.012   4.156   5.261
19513SOL    HW163386   6.099   4.118   5.255
19513SOL    HW263387   5.952   4.083   5.246
19514SOL     OW63388   7.143   4.229   4.471
19514SOL    HW163389   7.148   4.203   4.379
19514SOL    HW263390   7.230   4.208   4.507
19515SOL     OW63391   5.825   5.489   4.188
19515SOL    HW163392   5.868   5.557   4.239
19515SOL    HW263393   5.896   5.442   4.145
19516SOL     OW63394   6.737   5.039   5.399
19516SOL    HW163395   6.827   5.007   5.392
19516SOL    HW263396   6.684   4.960   5.401
19517SOL     OW63397   5.768   5.192   4.250
19517SOL    HW163398   5.766   5.274   4.300
19517SOL    HW263399   5.755   5.124   4.315
19518SOL     OW63400   5.868   4.816   4.602
19518SOL    HW163401   5.882   4.722   4.613
19518SOL    HW263402   5.856   4.849   4.691
19519SOL     OW63403   6.112   5.558   5.118
19519SOL    HW163404   6.047   5.524   5.180
19519SOL    HW263405   6.167   5.616   5.171
19520SOL     OW63406   6.127   4.769   3.863
19520SOL    HW163407   6.194   4.794   3.799
19520SOL    HW263408   6.172   4.772   3.947
19521SOL     OW63409   7.125   3.872   5.123
19521SOL    HW163410   7.211   3.892   5.085
19521SOL    HW263411   7.132   3.902   5.214
19522SOL     OW63412   5.607   4.379   4.322
19522SOL    HW163413   5.622   4.287   4.343
19522SOL    HW263414   5.645   4.428   4.395
19523SOL     OW63415   7.409   5.494   4.094
19523SOL    HW163416   7.489   5.457   4.131
19523SOL    HW263417   7.439   5.570   4.043
19524SOL     OW63418   5.628   5.298   3.852
19524SOL    HW163419   5.609   5.206   3.870
19524SOL    HW263420   5.611   5.343   3.935
19525SOL     OW63421   7.264   4.628   4.370
19525SOL    HW163422   7.350   4.616   4.411
19525SOL    HW263423   7.283   4.678   4.291
19526SOL     OW63424   7.250   4.839   4.169
19526SOL    HW163425   7.337   4.836   4.130
19526SOL    HW263426   7.258   4.901   4.242
19527SOL     OW63427   5.698   4.447   5.296
19527SOL    HW163428   5.783   4.490   5.302
19527SOL    HW263429   5.637   4.519   5.275
19528SOL     OW63430   6.193   5.133   4.425
19528SOL    HW163431   6.161   5.043   4.434
19528SOL    HW263432   6.175   5.156   4.334
19529SOL     OW63433   6.855   4.978   5.131
19529SOL    HW163434   6.873   4.907   5.070
19529SOL    HW263435   6.920   4.966   5.201
19530SOL     OW63436   6.436   3.750   4.242
19530SOL    HW163437   6.481   3.830   4.215
19530SOL    HW263438   6.347   3.779   4.265
19531SOL     OW63439   5.770   4.669   5.019
19531SOL    HW163440   5.861   4.640   5.014
19531SOL    HW263441   5.724   4.614   4.956
19532SOL     OW63442   7.118   4.733   3.943
19532SOL    HW163443   7.051   4.672   3.973
19532SOL    HW263444   7.164   4.760   4.023
19533SOL     OW63445   6.687   5.548   5.290
19533SOL    HW163446   6.730   5.612   5.233
19533SOL    HW263447   6.738   5.467   5.277
19534SOL     OW63448   5.934   3.970   5.600
19534SOL    HW163449   5.967   4.052   5.634
19534SOL    HW263450   5.838   3.981   5.598
19535SOL     OW63451   6.959   5.196   4.597
19535SOL    HW163452   6.968   5.193   4.693
19535SOL    HW263453   6.974   5.106   4.569
19536SOL     OW63454   7.219   5.525   4.287
19536SOL    HW163455   7.283   5.505   4.219
19536SOL    HW263456   7.219   5.448   4.344
19537SOL     OW63457   6.187   4.494   4.012
19537SOL    HW163458   6.267   4.486   3.960
19537SOL    HW263459   6.192   4.583   4.049
19538SOL     OW63460   6.828   3.969   4.646
19538SOL    HW163461   6.848   4.037   4.581
19538SOL    HW263462   6.887   3.988   4.719
19539SOL     OW63463   7.158   5.407   3.999
19539SOL    HW163464   7.249   5.425   4.020
19539SOL    HW263465   7.159   5.385   3.906
19540SOL     OW63466   6.999   4.172   5.378
19540SOL    HW163467   7.045   4.226   5.442
19540SOL    HW263468   7.047   4.089   5.377
19541SOL     OW63469   6.535   4.563   5.291
19541SOL    HW163470   6.581   4.485   5.258
19541SOL    HW263471   6.501   4.605   5.212
19542SOL     OW63472   6.541   4.123   4.979
19542SOL    HW163473   6.524   4.029   4.971
19542SOL    HW263474   6.636   4.131   4.966
19543SOL     OW63475   6.607   4.390   4.159
19543SOL    HW163476   6.640   4.397   4.248
19543SOL    HW263477   6.679   4.348   4.111
19544SOL     OW63478   5.669   4.572   4.515
19544SOL    HW163479   5.755   4.554   4.555
19544SOL    HW263480   5.637   4.649   4.562
19545SOL     OW63481   5.633   5.670   5.324
19545SOL    HW163482   5.656   5.627   5.407
19545SOL    HW263483   5.707   5.728   5.306
19546SOL     OW63484   6.480   4.090   3.929
19546SOL    HW163485   6.542   4.138   3.874
19546SOL    HW263486   6.448   4.019   3.873
19547SOL     OW63487   7.233   4.301   5.569
19547SOL    HW163488   7.243   4.380   5.515
19547SOL    HW263489   7.286   4.235   5.524
19548SOL     OW63490   6.974   4.856   4.235
19548SOL    HW163491   7.063   4.852   4.199
19548SOL    HW263492   6.933   4.929   4.189
19549SOL     OW63493   6.126   3.906   4.631
19549SOL    HW163494   6.150   3.923   4.723
19549SOL    HW263495   6.124   3.993   4.590
19550SOL     OW63496   6.611   5.195   4.248
19550SOL    HW163497   6.567   5.264   4.199
19550SOL    HW263498   6.655   5.241   4.320
19551SOL     OW63499   5.953   5.539   4.587
19551SOL    HW163500   5.992   5.452   4.597
19551SOL    HW263501   6.022   5.600   4.616
19552SOL     OW63502   7.316   4.822   4.624
19552SOL    HW163503   7.300   4.867   4.541
19552SOL    HW263504   7.370   4.746   4.600
19553SOL     OW63505   6.771   5.281   5.240
19553SOL    HW163506   6.772   5.200   5.290
19553SOL    HW263507   6.815   5.259   5.158
19554SOL     OW63508   5.887   4.676   3.982
19554SOL    HW163509   5.964   4.708   3.936
19554SOL    HW263510   5.884   4.583   3.964
19555SOL     OW63511   7.055   4.500   4.482
19555SOL    HW163512   7.089   4.410   4.482
19555SOL    HW263513   7.127   4.553   4.449
19556SOL     OW63514   6.055   5.023   5.455
19556SOL    HW163515   6.020   5.029   5.366
19556SOL    HW263516   5.977   5.011   5.510
19557SOL     OW63517   6.674   5.484   4.000
19557SOL    HW163518   6.751   5.537   4.017
19557SOL    HW263519   6.699   5.428   3.927
19558SOL     OW63520   5.807   3.966   5.213
19558SOL    HW163521   5.726   4.018   5.209
19558SOL    HW263522   5.779   3.882   5.249
19559SOL     OW63523   7.216   5.083   3.739
19559SOL    HW163524   7.254   5.168   3.763
19559SOL    HW263525   7.250   5.066   3.651
19560SOL     OW63526   6.115   5.464   4.103
19560SOL    HW163527   6.131   5.380   4.145
19560SOL    HW263528   6.158   5.456   4.017
19561SOL     OW63529   7.008   3.846   4.148
19561SOL    HW163530   6.987   3.807   4.064
19561SOL    HW263531   7.103   3.838   4.156
19562SOL     OW63532   5.794   5.512   4.958
19562SOL    HW163533   5.861   5.446   4.973
19562SOL    HW263534   5.775   5.506   4.864
19563SOL     OW63535   6.518   5.405   4.603
19563SOL    HW163536   6.601   5.360   4.589
19563SOL    HW263537   6.465   5.381   4.527
19564SOL     OW63538   7.114   3.920   5.448
19564SOL    HW163539   7.093   3.946   5.537
19564SOL    HW263540   7.130   3.826   5.453
19565SOL     OW63541   6.243   3.812   3.856
19565SOL    HW163542   6.279   3.727   3.882
19565SOL    HW263543   6.201   3.795   3.772
19566SOL     OW63544   6.328   4.017   5.494
19566SOL    HW163545   6.411   3.971   5.481
19566SOL    HW263546   6.287   3.974   5.569
19567SOL     OW63547   6.424   5.237   4.896
19567SOL    HW163548   6.413   5.195   4.810
19567SOL    HW263549   6.495   5.189   4.937
19568SOL     OW63550   6.886   4.319   5.160
19568SOL    HW163551   6.944   4.277   5.223
19568SOL    HW263552   6.922   4.407   5.148
19569SOL     OW63553   6.377   5.098   4.649
19569SOL    HW163554   6.468   5.091   4.620
19569SOL    HW263555   6.327   5.116   4.569
19570SOL     OW63556   6.546   4.220   4.616
19570SOL    HW163557   6.509   4.198   4.531
19570SOL    HW263558   6.617   4.157   4.628
19571SOL     OW63559   6.179   3.837   4.285
19571SOL    HW163560   6.094   3.797   4.307
19571SOL    HW263561   6.166   3.876   4.199
19572SOL     OW63562   6.999   4.934   3.798
19572SOL    HW163563   7.035   4.862   3.849
19572SOL    HW263564   7.072   4.996   3.790
19573SOL     OW63565   5.884   3.771   3.914
19573SOL    HW163566   5.936   3.831   3.860
19573SOL    HW263567   5.949   3.723   3.966
19574SOL     OW63568   6.552   3.993   4.186
19574SOL    HW163569   6.533   4.019   4.096
19574SOL    HW263570   6.647   4.004   4.194
19575SOL     OW63571   6.620   4.297   5.227
19575SOL    HW163572   6.646   4.240   5.299
19575SOL    HW263573   6.702   4.314   5.179
19576SOL     OW63574   6.751   5.314   4.467
19576SOL    HW163575   6.778   5.402   4.442
19576SOL    HW263576   6.827   5.277   4.511
19577SOL     OW63577   6.067   4.888   4.422
19577SOL    HW163578   6.004   4.865   4.491
19577SOL    HW263579   6.019   4.876   4.340
19578SOL     OW63580   6.833   5.576   4.418
19578SOL    HW163581   6.869   5.589   4.330
19578SOL    HW263582   6.903   5.604   4.476
19579SOL     OW63583   6.672   4.244   3.791
19579SOL    HW163584   6.686   4.331   3.755
19579SOL    HW263585   6.725   4.241   3.871
19580SOL     OW63586   5.691   4.251   5.105
19580SOL    HW163587   5.784   4.253   5.080
19580SOL    HW263588   5.683   4.317   5.174
19581SOL     OW63589   6.161   3.961   4.909
19581SOL    HW163590   6.211   3.893   4.955
19581SOL    HW263591   6.069   3.939   4.927
19582SOL     OW63592   6.409   4.153   4.380
19582SOL    HW163593   6.390   4.206   4.303
19582SOL    HW263594   6.456   4.077   4.345
19583SOL     OW63595   6.647   3.756   4.460
19583SOL    HW163596   6.603   3.771   4.376
19583SOL    HW263597   6.605   3.677   4.495
19584SOL     OW63598   7.017   4.955   4.493
19584SOL    HW163599   6.980   4.907   4.419
19584SOL    HW263600   7.110   4.961   4.473
19585SOL     OW63601   7.006   4.241   4.722
19585SOL    HW163602   7.052   4.224   4.639
19585SOL    HW263603   7.075   4.269   4.782
19586SOL     OW63604   7.542   4.541   4.021
19586SOL    HW163605   7.635   4.558   4.036
19586SOL    HW263606   7.537   4.522   3.927
19587SOL     OW63607   6.083   5.137   3.904
19587SOL    HW163608   5.996   5.107   3.930
19587SOL    HW263609   6.120   5.065   3.854
19588SOL     OW63610   7.272   5.004   4.398
19588SOL    HW163611   7.367   4.997   4.403
19588SOL    HW263612   7.255   5.098   4.390
19589SOL     OW63613   6.997   4.259   3.817
19589SOL    HW163614   7.008   4.164   3.813
19589SOL    HW263615   7.081   4.294   3.786
19590SOL     OW63616   6.124   3.968   4.049
19590SOL    HW163617   6.171   3.913   3.985
19590SOL    HW263618   6.095   4.044   3.999
19591SOL     OW63619   7.295   4.987   5.294
19591SOL    HW163620   7.355   4.915   5.276
19591SOL    HW263621   7.342   5.042   5.356
19592SOL     OW63622   6.604   5.068   5.031
19592SOL    HW163623   6.531   5.030   5.080
19592SOL    HW263624   6.682   5.044   5.081
19593SOL     OW63625   7.181   5.368   5.381
19593SOL    HW163626   7.164   5.392   5.289
19593SOL    HW263627   7.273   5.343   5.383
19594SOL     OW63628   6.754   4.990   4.814
19594SOL    HW163629   6.689   5.020   4.878
19594SOL    HW263630   6.717   5.013   4.729
19595SOL     OW63631   7.134   4.806   4.832
19595SOL    HW163632   7.165   4.877   4.888
19595SOL    HW263633   7.190   4.811   4.754
19596SOL     OW63634   6.472   3.864   5.069
19596SOL    HW163635   6.485   3.791   5.009
19596SOL    HW263636   6.556   3.872   5.115
19597SOL     OW63637   6.563   4.818   5.415
19597SOL    HW163638   6.470   4.836   5.429
19597SOL    HW263639   6.564   4.737   5.364
19598SOL     OW63640   6.271   4.747   4.101
19598SOL    HW163641   6.268   4.738   4.196
19598SOL    HW263642   6.352   4.703   4.075
19599SOL     OW63643   6.022   4.554   5.006
19599SOL    HW163644   6.089   4.554   5.074
19599SOL    HW263645   5.994   4.463   5.000
19600SOL     OW63646   6.816   4.117   4.981
19600SOL    HW163647   6.858   4.191   5.025
19600SOL    HW263648   6.887   4.076   4.931
19601SOL     OW63649   5.656   5.285   5.082
19601SOL    HW163650   5.637   5.360   5.026
19601SOL    HW263651   5.750   5.273   5.074
19602SOL     OW63652   5.904   4.857   4.198
19602SOL    HW163653   5.900   4.929   4.135
19602SOL    HW263654   5.902   4.777   4.144
19603SOL     OW63655   6.154   4.207   4.568
19603SOL    HW163656   6.210   4.184   4.494
19603SOL    HW263657   6.214   4.244   4.633
19604SOL     OW63658   6.841   5.081   4.142
19604SOL    HW163659   6.898   5.157   4.153
19604SOL    HW263660   6.759   5.107   4.184
19605SOL     OW63661   6.963   5.168   4.876
19605SOL    HW163662   7.032   5.129   4.930
19605SOL    HW263663   6.897   5.099   4.868
19606SOL     OW63664   5.919   5.248   5.016
19606SOL    HW163665   5.916   5.197   4.936
19606SOL    HW263666   6.011   5.274   5.024
19607SOL     OW63667   5.981   4.458   5.343
19607SOL    HW163668   6.055   4.499   5.297
19607SOL    HW263669   5.994   4.364   5.330
19608SOL     OW63670   7.194   4.536   5.430
19608SOL    HW163671   7.104   4.569   5.423
19608SOL    HW263672   7.240   4.574   5.355
19609SOL     OW63673   6.559   3.887   5.447
19609SOL    HW163674   6.633   3.946   5.434
19609SOL    HW263675   6.587   3.804   5.409
19610SOL     OW63676   6.088   3.776   5.478
19610SOL    HW163677   6.040   3.718   5.419
19610SOL    HW263678   6.026   3.846   5.499
19611SOL     OW63679   6.133   4.639   4.760
19611SOL    HW163680   6.196   4.712   4.763
19611SOL    HW263681   6.112   4.621   4.851
19612SOL     OW63682   6.847   4.455   4.661
19612SOL    HW163683   6.918   4.497   4.613
19612SOL    HW263684   6.887   4.377   4.700
19613SOL     OW63685   6.820   4.266   4.029
19613SOL    HW163686   6.827   4.189   4.086
19613SOL    HW263687   6.897   4.261   3.973
19614SOL     OW63688   5.894   3.905   4.953
19614SOL    HW163689   5.861   3.925   5.041
19614SOL    HW263690   5.883   3.811   4.944
19615SOL     OW63691   5.623   5.031   4.969
19615SOL    HW163692   5.646   4.969   5.039
19615SOL    HW263693   5.622   5.116   5.012
19616SOL     OW63694   6.329   4.319   4.751
19616SOL    HW163695   6.405   4.271   4.720
19616SOL    HW263696   6.356   4.410   4.751
19617SOL     OW63697   7.313   4.690   5.624
19617SOL    HW163698   7.275   4.627   5.563
19617SOL    HW263699   7.245   4.703   5.691
19618SOL     OW63700   5.951   3.739   4.406
19618SOL    HW163701   5.908   3.824   4.418
19618SOL    HW263702   5.892   3.690   4.350
19619SOL     OW63703   7.166   4.132   4.216
19619SOL    HW163704   7.200   4.044   4.223
19619SOL    HW263705   7.209   4.169   4.138
19620SOL     OW63706   6.582   4.480   4.710
19620SOL    HW163707   6.676   4.493   4.701
19620SOL    HW263708   6.566   4.392   4.677
19621SOL     OW63709   6.564   5.231   5.485
19621SOL    HW163710   6.538   5.290   5.414
19621SOL    HW263711   6.619   5.165   5.442
19622SOL     OW63712   7.443   5.302   5.299
19622SOL    HW163713   7.465   5.395   5.286
19622SOL    HW263714   7.514   5.268   5.353
19623SOL     OW63715   5.946   4.634   5.563
19623SOL    HW163716   6.036   4.657   5.587
19623SOL    HW263717   5.956   4.567   5.496
19624SOL     OW63718   7.075   3.995   3.812
19624SOL    HW163719   7.021   3.921   3.841
19624SOL    HW263720   7.161   3.978   3.850
19625SOL     OW63721   6.845   4.479   3.723
19625SOL    HW163722   6.902   4.403   3.738
19625SOL    HW263723   6.883   4.523   3.647
19626SOL     OW63724   6.636   5.072   4.572
19626SOL    HW163725   6.646   4.991   4.522
19626SOL    HW263726   6.687   5.137   4.524
19627SOL     OW63727   5.907   4.541   4.650
19627SOL    HW163728   5.992   4.571   4.681
19627SOL    HW263729   5.905   4.447   4.671
19628SOL     OW63730   5.917   4.268   4.708
19628SOL    HW163731   5.872   4.184   4.708
19628SOL    HW263732   5.997   4.253   4.656
19629SOL     OW63733   6.732   4.111   5.403
19629SOL    HW163734   6.704   4.146   5.488
19629SOL    HW263735   6.825   4.130   5.398
19630SOL     OW63736   6.721   3.937   5.175
19630SOL    HW163737   6.737   3.995   5.250
19630SOL    HW263738   6.767   3.979   5.103
19631SOL     OW63739   5.600   5.016   3.899
19631SOL    HW163740   5.510   5.037   3.873
19631SOL    HW263741   5.595   4.927   3.932
19632SOL     OW63742   5.697   5.501   4.688
19632SOL    HW163743   5.665   5.427   4.637
19632SOL    HW263744   5.781   5.524   4.647
19633SOL     OW63745   6.068   5.287   4.619
19633SOL    HW163746   6.140   5.339   4.655
19633SOL    HW263747   6.110   5.235   4.550
19634SOL     OW63748   6.599   4.608   4.962
19634SOL    HW163749   6.692   4.631   4.965
19634SOL    HW263750   6.590   4.556   4.881
19635SOL     OW63751   5.644   4.335   4.841
19635SOL    HW163752   5.722   4.321   4.789
19635SOL    HW263753   5.667   4.303   4.929
19636SOL     OW63754   5.776   4.251   5.478
19636SOL    HW163755   5.849   4.215   5.427
19636SOL    HW263756   5.736   4.316   5.419
19637SOL     OW63757   6.946   4.656   5.389
19637SOL    HW163758   6.974   4.747   5.384
19637SOL    HW263759   6.942   4.627   5.298
19638SOL     OW63760   6.369   4.259   4.118
19638SOL    HW163761   6.397   4.194   4.054
19638SOL    HW263762   6.446   4.315   4.131
19639SOL     OW63763   7.221   4.327   4.862
19639SOL    HW163764   7.230   4.275   4.942
19639SOL    HW263765   7.312   4.342   4.834
19640SOL     OW63766   5.792   5.263   5.445
19640SOL    HW163767   5.765   5.285   5.534
19640SOL    HW263768   5.822   5.172   5.450
19641SOL     OW63769   6.242   4.215   4.991
19641SOL    HW163770   6.219   4.126   4.967
19641SOL    HW263771   6.271   4.256   4.909
19642SOL     OW63772   6.457   5.403   5.280
19642SOL    HW163773   6.455   5.368   5.191
19642SOL    HW263774   6.531   5.463   5.281
19643SOL     OW63775   6.059   4.218   3.939
19643SOL    HW163776   6.101   4.225   3.854
19643SOL    HW263777   5.971   4.253   3.925
19644SOL     OW63778   5.690   4.862   5.194
19644SOL    HW163779   5.709   4.827   5.281
19644SOL    HW263780   5.721   4.794   5.134
19645SOL     OW63781   6.880   4.777   4.934
19645SOL    HW163782   6.967   4.772   4.894
19645SOL    HW263783   6.831   4.839   4.880
19646SOL     OW63784   6.908   4.556   3.992
19646SOL    HW163785   6.889   4.479   4.046
19646SOL    HW263786   6.888   4.528   3.902
19647SOL     OW63787   7.311   5.469   4.820
19647SOL    HW163788   7.383   5.511   4.774
19647SOL    HW263789   7.332   5.376   4.820
19648SOL     OW63790   6.855   5.435   4.835
19648SOL    HW163791   6.929   5.485   4.799
19648SOL    HW263792   6.892   5.349   4.855
19649SOL     OW63793   5.662   5.039   4.697
19649SOL    HW163794   5.640   5.036   4.790
19649SOL    HW263795   5.624   4.959   4.661
19650SOL     OW63796   6.268   5.423   5.477
19650SOL    HW163797   6.204   5.489   5.453
19650SOL    HW263798   6.336   5.430   5.410
19651SOL     OW63799   7.297   3.885   4.223
19651SOL    HW163800   7.371   3.881   4.162
19651SOL    HW263801   7.290   3.797   4.259
19652SOL     OW63802   6.983   5.312   4.183
19652SOL    HW163803   7.050   5.321   4.114
19652SOL    HW263804   6.951   5.400   4.197
19653SOL     OW63805   5.722   5.564   5.563
19653SOL    HW163806   5.698   5.476   5.593
19653SOL    HW263807   5.786   5.595   5.628
19654SOL     OW63808   6.853   4.659   4.376
19654SOL    HW163809   6.929   4.615   4.415
19654SOL    HW263810   6.891   4.722   4.314
19655SOL     OW63811   6.355   4.984   5.130
19655SOL    HW163812   6.334   5.041   5.204
19655SOL    HW263813   6.286   5.001   5.066
19656SOL     OW63814   6.256   5.361   3.883
19656SOL    HW163815   6.282   5.369   3.791
19656SOL    HW263816   6.209   5.277   3.888
19657SOL     OW63817   7.233   5.428   5.084
19657SOL    HW163818   7.253   5.449   4.993
19657SOL    HW263819   7.211   5.512   5.124
19658SOL     OW63820   7.420   3.888   4.731
19658SOL    HW163821   7.456   3.801   4.716
19658SOL    HW263822   7.400   3.922   4.644
19659SOL     OW63823   5.852   4.007   4.439
19659SOL    HW163824   5.767   4.042   4.414
19659SOL    HW263825   5.853   4.010   4.534
19660SOL     OW63826   6.737   5.318   3.791
19660SOL    HW163827   6.756   5.230   3.822
19660SOL    HW263828   6.676   5.306   3.719
19661SOL     OW63829   6.389   4.709   5.105
19661SOL    HW163830   6.456   4.691   5.039
19661SOL    HW263831   6.384   4.804   5.109
19662SOL     OW63832   6.477   4.592   4.018
19662SOL    HW163833   6.538   4.619   3.950
19662SOL    HW263834   6.527   4.530   4.072
19663SOL     OW63835   7.037   5.407   3.737
19663SOL    HW163836   6.961   5.352   3.722
19663SOL    HW263837   7.094   5.391   3.662
19664SOL     OW63838   5.908   5.051   5.228
19664SOL    HW163839   5.920   5.112   5.155
19664SOL    HW263840   5.840   4.991   5.198
19665SOL     OW63841   7.202   5.001   5.026
19665SOL    HW163842   7.293   5.003   4.998
19665SOL    HW263843   7.207   4.981   5.120
19666SOL     OW63844   6.643   4.831   4.448
19666SOL    HW163845   6.577   4.772   4.485
19666SOL    HW263846   6.715   4.774   4.422
19667SOL     OW63847   6.171   5.198   4.159
19667SOL    HW163848   6.255   5.152   4.154
19667SOL    HW263849   6.127   5.177   4.076
19668SOL     OW63850   7.285   4.188   5.085
19668SOL    HW163851   7.368   4.229   5.110
19668SOL    HW263852   7.309   4.097   5.064
19669SOL     OW63853   5.844   5.065   4.022
19669SOL    HW163854   5.759   5.046   3.983
19669SOL    HW263855   5.824   5.120   4.099
19670SOL     OW63856   5.716   4.761   5.455
19670SOL    HW163857   5.638   4.735   5.505
19670SOL    HW263858   5.787   4.710   5.493
19671SOL     OW63859   6.291   4.012   5.219
19671SOL    HW163860   6.339   3.942   5.174
19671SOL    HW263861   6.294   3.988   5.311
19672SOL     OW63862   5.656   4.043   3.735
19672SOL    HW163863   5.586   4.027   3.672
19672SOL    HW263864   5.695   4.126   3.707
19673SOL     OW63865   6.955   4.588   5.123
19673SOL    HW163866   6.916   4.651   5.063
19673SOL    HW263867   7.044   4.574   5.090
19674SOL     OW63868   5.639   3.878   3.972
19674SOL    HW163869   5.628   3.935   3.896
19674SOL    HW263870   5.728   3.846   3.965
19675SOL     OW63871   6.767   5.059   3.878
19675SOL    HW163872   6.841   5.013   3.838
19675SOL    HW263873   6.788   5.061   3.971
19676SOL     OW63874   6.211   4.531   5.211
19676SOL    HW163875   6.269   4.599   5.177
19676SOL    HW263876   6.269   4.471   5.258
19677SOL     OW63877   7.075   5.585   4.733
19677SOL    HW163878   7.108   5.641   4.663
19677SOL    HW263879   7.152   5.539   4.767
19678SOL     OW63880   6.348   4.273   5.372
19678SOL    HW163881   6.390   4.330   5.438
19678SOL    HW263882   6.330   4.192   5.419
19679SOL     OW63883   7.024   4.933   5.361
19679SOL    HW163884   7.031   4.937   5.456
19679SOL    HW263885   7.113   4.944   5.329
19680SOL     OW63886   5.900   5.468   5.289
19680SOL    HW163887   5.817   5.494   5.249
19680SOL    HW263888   5.879   5.390   5.340
19681SOL     OW63889   7.184   4.575   4.978
19681SOL    HW163890   7.205   4.493   4.932
19681SOL    HW263891   7.181   4.641   4.909
19682SOL     OW63892   6.824   4.046   4.199
19682SOL    HW163893   6.888   3.978   4.178
19682SOL    HW263894   6.846   4.074   4.288
19683SOL     OW63895   6.151   4.442   4.331
19683SOL    HW163896   6.192   4.528   4.342
19683SOL    HW263897   6.127   4.415   4.419
19684SOL     OW63898   7.344   4.084   5.439
19684SOL    HW163899   7.408   4.075   5.368
19684SOL    HW263900   7.283   4.011   5.426
19685SOL     OW63901   7.273   4.681   5.213
19685SOL    HW163902   7.362   4.714   5.203
19685SOL    HW263903   7.253   4.640   5.129
19686SOL     OW63904   6.411   5.103   3.794
19686SOL    HW163905   6.474   5.100   3.866
19686SOL    HW263906   6.455   5.154   3.726
19687SOL     OW63907   6.256   5.471   4.685
19687SOL    HW163908   6.249   5.564   4.663
19687SOL    HW263909   6.349   5.450   4.674
19688SOL     OW63910   6.440   4.690   4.589
19688SOL    HW163911   6.490   4.619   4.629
19688SOL    HW263912   6.405   4.740   4.662
19689SOL     OW63913   6.636   4.652   3.801
19689SOL    HW163914   6.656   4.741   3.774
19689SOL    HW263915   6.716   4.603   3.783
19690SOL     OW63916   7.546   5.264   4.588
19690SOL    HW163917   7.566   5.230   4.500
19690SOL    HW263918   7.614   5.227   4.644
19691SOL     OW63919   5.800   5.003   5.558
19691SOL    HW163920   5.769   4.924   5.515
19691SOL    HW263921   5.745   5.011   5.636
19692SOL     OW63922   5.736   4.957   4.396
19692SOL    HW163923   5.768   4.914   4.476
19692SOL    HW263924   5.784   4.913   4.325
19693SOL     OW63925   6.272   5.150   5.334
19693SOL    HW163926   6.195   5.126   5.385
19693SOL    HW263927   6.299   5.235   5.370
19694SOL     OW63928   7.360   3.931   5.003
19694SOL    HW163929   7.442   3.932   5.054
19694SOL    HW263930   7.387   3.911   4.914
19695SOL     OW63931   6.040   4.134   4.259
19695SOL    HW163932   6.064   4.059   4.206
19695SOL    HW263933   5.982   4.098   4.326
19696SOL     OW63934   7.340   5.197   4.833
19696SOL    HW163935   7.284   5.190   4.755
19696SOL    HW263936   7.415   5.141   4.812
19697SOL     OW63937   5.945   4.287   5.007
19697SOL    HW163938   6.006   4.243   5.066
19697SOL    HW263939   5.971   4.258   4.919
19698SOL     OW63940   6.372   5.357   4.378
19698SOL    HW163941   6.395   5.371   4.286
19698SOL    HW263942   6.322   5.275   4.378
19699SOL     OW63943   7.005   3.937   4.879
19699SOL    HW163944   7.029   3.857   4.831
19699SOL    HW263945   7.044   3.925   4.966
19700SOL     OW63946   6.533   3.669   4.883
19700SOL    HW163947   6.517   3.575   4.893
19700SOL    HW263948   6.624   3.675   4.852
19701SOL     OW63949   6.394   5.046   4.146
19701SOL    HW163950   6.402   4.952   4.131
19701SOL    HW263951   6.478   5.072   4.183
19702SOL     OW63952   6.182   5.317   4.993
19702SOL    HW163953   6.179   5.406   5.029
19702SOL    HW263954   6.270   5.307   4.958
19703SOL     OW63955   6.938   3.774   3.891
19703SOL    HW163956   6.983   3.704   3.844
19703SOL    HW263957   6.849   3.741   3.905
19704SOL     OW63958   6.868   4.166   4.445
19704SOL    HW163959   6.828   4.250   4.422
19704SOL    HW263960   6.962   4.186   4.453
19705SOL     OW63961   7.126   3.929   4.601
19705SOL    HW163962   7.144   3.979   4.681
19705SOL    HW263963   7.199   3.951   4.542
19706SOL     OW63964   5.621   4.764   4.022
19706SOL    HW163965   5.714   4.748   4.005
19706SOL    HW263966   5.584   4.678   4.040
19707SOL     OW63967   6.444   5.383   4.109
19707SOL    HW163968   6.392   5.364   4.031
19707SOL    HW263969   6.522   5.428   4.075
19708SOL     OW63970   5.779   4.350   5.739
19708SOL    HW163971   5.691   4.334   5.774
19708SOL    HW263972   5.772   4.330   5.646
19709SOL     OW63973   5.765   4.045   6.635
19709SOL    HW163974   5.812   3.989   6.697
19709SOL    HW263975   5.732   3.984   6.569
19710SOL     OW63976   6.160   5.044   6.813
19710SOL    HW163977   6.081   5.048   6.759
19710SOL    HW263978   6.185   5.136   6.826
19711SOL     OW63979   7.176   5.228   6.254
19711SOL    HW163980   7.129   5.214   6.336
19711SOL    HW263981   7.108   5.255   6.192
19712SOL     OW63982   6.717   4.480   6.246
19712SOL    HW163983   6.777   4.554   6.247
19712SOL    HW263984   6.680   4.478   6.334
19713SOL     OW63985   7.347   4.278   5.827
19713SOL    HW163986   7.304   4.298   5.744
19713SOL    HW263987   7.420   4.221   5.803
19714SOL     OW63988   6.323   4.863   6.686
19714SOL    HW163989   6.263   4.915   6.740
19714SOL    HW263990   6.364   4.926   6.627
19715SOL     OW63991   6.491   4.461   7.388
19715SOL    HW163992   6.519   4.529   7.449
19715SOL    HW263993   6.501   4.500   7.301
19716SOL     OW63994   6.293   4.737   6.275
19716SOL    HW163995   6.343   4.689   6.341
19716SOL    HW263996   6.334   4.824   6.272
19717SOL     OW63997   6.291   4.871   7.401
19717SOL    HW163998   6.334   4.943   7.448
19717SOL    HW263999   6.226   4.914   7.346
19718SOL     OW64000   5.929   5.114   6.660
19718SOL    HW164001   5.862   5.065   6.613
19718SOL    HW264002   5.968   5.171   6.593
19719SOL     OW64003   7.023   5.287   6.963
19719SOL    HW164004   7.080   5.363   6.969
19719SOL    HW264005   7.083   5.212   6.960
19720SOL     OW64006   6.064   4.087   7.147
19720SOL    HW164007   6.144   4.060   7.102
19720SOL    HW264008   6.064   4.037   7.229
19721SOL     OW64009   7.193   4.170   6.340
19721SOL    HW164010   7.179   4.203   6.251
19721SOL    HW264011   7.286   4.145   6.341
19722SOL     OW64012   5.824   5.419   6.054
19722SOL    HW164013   5.846   5.491   6.113
19722SOL    HW264014   5.902   5.408   6.000
19723SOL     OW64015   6.757   5.050   7.262
19723SOL    HW164016   6.840   5.008   7.241
19723SOL    HW264017   6.695   4.978   7.273
19724SOL     OW64018   5.750   5.172   6.169
19724SOL    HW164019   5.778   5.253   6.125
19724SOL    HW264020   5.701   5.203   6.246
19725SOL     OW64021   5.837   4.807   6.419
19725SOL    HW164022   5.857   4.723   6.459
19725SOL    HW264023   5.798   4.859   6.490
19726SOL     OW64024   6.108   5.578   6.983
19726SOL    HW164025   6.046   5.545   7.047
19726SOL    HW264026   6.163   5.640   7.032
19727SOL     OW64027   6.198   4.721   5.712
19727SOL    HW164028   6.229   4.771   5.637
19727SOL    HW264029   6.277   4.695   5.758
19728SOL     OW64030   7.293   3.842   7.079
19728SOL    HW164031   7.323   3.878   6.995
19728SOL    HW264032   7.372   3.804   7.118
19729SOL     OW64033   5.744   4.389   6.169
19729SOL    HW164034   5.765   4.303   6.206
19729SOL    HW264035   5.718   4.441   6.245
19730SOL     OW64036   7.434   5.459   5.931
19730SOL    HW164037   7.515   5.434   5.975
19730SOL    HW264038   7.452   5.544   5.892
19731SOL     OW64039   5.678   5.309   5.692
19731SOL    HW164040   5.664   5.218   5.717
19731SOL    HW264041   5.643   5.360   5.765
19732SOL     OW64042   7.304   4.519   6.196
19732SOL    HW164043   7.368   4.529   6.266
19732SOL    HW264044   7.356   4.517   6.116
19733SOL     OW64045   5.751   4.437   7.123
19733SOL    HW164046   5.804   4.516   7.118
19733SOL    HW264047   5.662   4.466   7.104
19734SOL     OW64048   6.188   5.119   6.323
19734SOL    HW164049   6.138   5.038   6.309
19734SOL    HW264050   6.197   5.157   6.235
19735SOL     OW64051   6.827   4.929   6.980
19735SOL    HW164052   6.835   4.852   6.925
19735SOL    HW264053   6.904   4.927   7.036
19736SOL     OW64054   6.383   3.764   6.112
19736SOL    HW164055   6.431   3.841   6.081
19736SOL    HW264056   6.292   3.793   6.114
19737SOL     OW64057   5.780   4.697   6.859
19737SOL    HW164058   5.864   4.653   6.869
19737SOL    HW264059   5.769   4.705   6.764
19738SOL     OW64060   7.094   4.728   5.809
19738SOL    HW164061   7.012   4.686   5.836
19738SOL    HW264062   7.151   4.720   5.886
19739SOL     OW64063   6.681   5.528   7.193
19739SOL    HW164064   6.711   5.603   7.141
19739SOL    HW264065   6.729   5.453   7.158
19740SOL     OW64066   5.914   3.995   7.389
19740SOL    HW164067   5.968   4.042   7.452
19740SOL    HW264068   5.829   3.985   7.433
19741SOL     OW64069   6.991   5.166   6.467
19741SOL    HW164070   6.976   5.181   6.560
19741SOL    HW264071   7.009   5.073   6.460
19742SOL     OW64072   7.294   5.490   6.172
19742SOL    HW164073   7.339   5.462   6.093
19742SOL    HW264074   7.267   5.409   6.215
19743SOL     OW64075   6.173   4.413   5.821
19743SOL    HW164076   6.196   4.499   5.784
19743SOL    HW264077   6.113   4.434   5.893
19744SOL     OW64078   6.814   4.114   6.502
19744SOL    HW164079   6.749   4.046   6.520
19744SOL    HW264080   6.892   4.086   6.549
19745SOL     OW64081   7.152   5.413   5.887
19745SOL    HW164082   7.246   5.427   5.897
19745SOL    HW264083   7.142   5.378   5.798
19746SOL     OW64084   6.332   4.317   7.025
19746SOL    HW164085   6.330   4.282   7.114
19746SOL    HW264086   6.298   4.245   6.971
19747SOL     OW64087   6.985   4.199   7.253
19747SOL    HW164088   6.992   4.239   7.340
19747SOL    HW264089   7.070   4.158   7.239
19748SOL     OW64090   6.535   4.607   7.148
19748SOL    HW164091   6.585   4.533   7.112
19748SOL    HW264092   6.500   4.651   7.071
19749SOL     OW64093   6.583   4.122   6.796
19749SOL    HW164094   6.547   4.048   6.845
19749SOL    HW264095   6.582   4.093   6.705
19750SOL     OW64096   6.602   4.492   5.994
19750SOL    HW164097   6.642   4.486   6.081
19750SOL    HW264098   6.579   4.403   5.971
19751SOL     OW64099   5.663   4.542   6.386
19751SOL    HW164100   5.743   4.541   6.438
19751SOL    HW264101   5.609   4.610   6.426
19752SOL     OW64102   5.654   5.593   7.171
19752SOL    HW164103   5.665   5.583   7.266
19752SOL    HW264104   5.568   5.556   7.153
19753SOL     OW64105   6.478   4.065   5.778
19753SOL    HW164106   6.535   4.120   5.724
19753SOL    HW264107   6.476   3.981   5.732
19754SOL     OW64108   7.257   4.277   7.418
19754SOL    HW164109   7.246   4.363   7.378
19754SOL    HW264110   7.258   4.216   7.344
19755SOL     OW64111   7.015   4.895   6.118
19755SOL    HW164112   7.105   4.925   6.107
19755SOL    HW264113   6.962   4.962   6.075
19756SOL     OW64114   6.046   3.972   6.469
19756SOL    HW164115   6.083   3.960   6.556
19756SOL    HW264116   6.107   4.032   6.425
19757SOL     OW64117   6.589   5.193   6.070
19757SOL    HW164118   6.570   5.266   6.011
19757SOL    HW264119   6.572   5.227   6.158
19758SOL     OW64120   5.932   5.539   6.495
19758SOL    HW164121   5.983   5.458   6.490
19758SOL    HW264122   5.998   5.609   6.504
19759SOL     OW64123   7.311   4.851   6.393
19759SOL    HW164124   7.355   4.768   6.375
19759SOL    HW264125   7.366   4.893   6.459
19760SOL     OW64126   6.786   5.279   7.100
19760SOL    HW164127   6.800   5.198   7.149
19760SOL    HW264128   6.868   5.293   7.052
19761SOL     OW64129   5.902   4.674   5.838
19761SOL    HW164130   5.898   4.654   5.745
19761SOL    HW264131   5.900   4.588   5.881
19762SOL     OW64132   7.076   4.547   6.356
19762SOL    HW164133   7.086   4.472   6.415
19762SOL    HW264134   7.151   4.542   6.297
19763SOL     OW64135   6.117   5.059   7.290
19763SOL    HW164136   6.069   5.047   7.208
19763SOL    HW264137   6.049   5.057   7.358
19764SOL     OW64138   6.710   5.486   5.779
19764SOL    HW164139   6.636   5.454   5.829
19764SOL    HW264140   6.742   5.411   5.730
19765SOL     OW64141   5.775   4.027   7.147
19765SOL    HW164142   5.734   3.942   7.131
19765SOL    HW264143   5.827   4.015   7.226
19766SOL     OW64144   7.221   5.121   5.718
19766SOL    HW164145   7.179   5.201   5.687
19766SOL    HW264146   7.167   5.050   5.683
19767SOL     OW64147   6.065   5.418   5.905
19767SOL    HW164148   6.105   5.487   5.957
19767SOL    HW264149   6.130   5.396   5.839
19768SOL     OW64150   7.016   3.777   6.043
19768SOL    HW164151   6.985   3.759   5.954
19768SOL    HW264152   7.066   3.858   6.035
19769SOL     OW64153   5.829   5.502   6.776
19769SOL    HW164154   5.886   5.442   6.824
19769SOL    HW264155   5.866   5.504   6.688
19770SOL     OW64156   6.533   5.429   6.479
19770SOL    HW164157   6.619   5.388   6.488
19770SOL    HW264158   6.492   5.382   6.406
19771SOL     OW64159   5.988   4.423   6.032
19771SOL    HW164160   6.022   4.335   6.051
19771SOL    HW264161   5.899   4.423   6.067
19772SOL     OW64162   6.236   3.832   5.704
19772SOL    HW164163   6.293   3.757   5.721
19772SOL    HW264164   6.187   3.808   5.625
19773SOL     OW64165   6.329   4.009   7.360
19773SOL    HW164166   6.411   3.963   7.342
19773SOL    HW264167   6.290   3.960   7.432
19774SOL     OW64168   6.421   5.224   6.794
19774SOL    HW164169   6.413   5.187   6.706
19774SOL    HW264170   6.496   5.180   6.833
19775SOL     OW64171   6.912   4.322   7.017
19775SOL    HW164172   6.950   4.287   7.098
19775SOL    HW264173   6.953   4.407   7.005
19776SOL     OW64174   6.379   5.098   6.540
19776SOL    HW164175   6.467   5.097   6.503
19776SOL    HW264176   6.322   5.115   6.465
19777SOL     OW64177   6.509   4.213   6.452
19777SOL    HW164178   6.475   4.201   6.363
19777SOL    HW264179   6.556   4.132   6.471
19778SOL     OW64180   6.106   3.817   6.087
19778SOL    HW164181   6.098   3.734   6.039
19778SOL    HW264182   6.109   3.884   6.018
19779SOL     OW64183   7.030   4.933   5.634
19779SOL    HW164184   7.060   4.859   5.687
19779SOL    HW264185   6.949   4.962   5.676
19780SOL     OW64186   5.890   3.756   5.784
19780SOL    HW164187   5.944   3.816   5.732
19780SOL    HW264188   5.953   3.697   5.825
19781SOL     OW64189   6.522   3.985   6.039
19781SOL    HW164190   6.507   4.014   5.949
19781SOL    HW264191   6.617   3.987   6.049
19782SOL     OW64192   6.647   4.382   7.036
19782SOL    HW164193   6.613   4.293   7.036
19782SOL    HW264194   6.742   4.371   7.029
19783SOL     OW64195   6.774   5.305   6.363
19783SOL    HW164196   6.802   5.379   6.309
19783SOL    HW264197   6.856   5.266   6.395
19784SOL     OW64198   6.055   4.886   6.274
19784SOL    HW164199   5.977   4.859   6.321
19784SOL    HW264200   6.118   4.815   6.288
19785SOL     OW64201   6.843   5.536   6.215
19785SOL    HW164202   6.891   5.599   6.161
19785SOL    HW264203   6.778   5.590   6.261
19786SOL     OW64204   6.635   4.235   5.629
19786SOL    HW164205   6.599   4.322   5.609
19786SOL    HW264206   6.689   4.249   5.707
19787SOL     OW64207   6.146   3.923   6.721
19787SOL    HW164208   6.197   3.842   6.728
19787SOL    HW264209   6.066   3.905   6.771
19788SOL     OW64210   6.381   4.168   6.194
19788SOL    HW164211   6.390   4.232   6.124
19788SOL    HW264212   6.430   4.092   6.164
19789SOL     OW64213   6.473   3.787   6.375
19789SOL    HW164214   6.451   3.777   6.282
19789SOL    HW264215   6.517   3.706   6.398
19790SOL     OW64216   7.045   4.895   6.450
19790SOL    HW164217   6.993   4.846   6.387
19790SOL    HW264218   7.136   4.878   6.425
19791SOL     OW64219   7.084   4.336   6.538
19791SOL    HW164220   7.112   4.268   6.477
19791SOL    HW264221   7.142   4.327   6.613
19792SOL     OW64222   7.474   4.478   5.980
19792SOL    HW164223   7.562   4.445   5.999
19792SOL    HW264224   7.441   4.421   5.910
19793SOL     OW64225   6.095   5.035   5.741
19793SOL    HW164226   6.088   5.129   5.759
19793SOL    HW264227   6.128   5.030   5.651
19794SOL     OW64228   7.299   4.992   6.154
19794SOL    HW164229   7.304   4.942   6.235
19794SOL    HW264230   7.269   5.079   6.181
19795SOL     OW64231   6.978   4.282   5.661
19795SOL    HW164232   6.977   4.188   5.678
19795SOL    HW264233   7.070   4.302   5.644
19796SOL     OW64234   6.121   4.003   5.888
19796SOL    HW164235   6.174   3.950   5.828
19796SOL    HW264236   6.081   4.069   5.832
19797SOL     OW64237   7.279   5.000   7.090
19797SOL    HW164238   7.347   4.933   7.083
19797SOL    HW264239   7.327   5.079   7.115
19798SOL     OW64240   6.614   5.106   6.960
19798SOL    HW164241   6.675   5.032   6.963
19798SOL    HW264242   6.665   5.180   6.993
19799SOL     OW64243   7.192   5.361   7.239
19799SOL    HW164244   7.185   5.416   7.161
19799SOL    HW264245   7.273   5.311   7.226
19800SOL     OW64246   6.682   4.943   6.684
19800SOL    HW164247   6.719   5.012   6.739
19800SOL    HW264248   6.669   4.985   6.599
19801SOL     OW64249   7.127   4.797   6.703
19801SOL    HW164250   7.138   4.875   6.756
19801SOL    HW264251   7.098   4.829   6.618
19802SOL     OW64252   6.515   3.878   6.918
19802SOL    HW164253   6.537   3.815   6.850
19802SOL    HW264254   6.592   3.880   6.975
19803SOL     OW64255   6.561   4.841   7.298
19803SOL    HW164256   6.468   4.844   7.319
19803SOL    HW264257   6.569   4.767   7.237
19804SOL     OW64258   6.243   4.791   6.003
19804SOL    HW164259   6.253   4.767   6.095
19804SOL    HW264260   6.313   4.744   5.958
19805SOL     OW64261   6.014   4.558   6.877
19805SOL    HW164262   6.085   4.572   6.941
19805SOL    HW264263   6.002   4.463   6.875
19806SOL     OW64264   6.851   4.095   6.875
19806SOL    HW164265   6.886   4.174   6.916
19806SOL    HW264266   6.766   4.122   6.840
19807SOL     OW64267   5.657   5.296   6.929
19807SOL    HW164268   5.644   5.375   6.877
19807SOL    HW264269   5.752   5.285   6.931
19808SOL     OW64270   6.111   4.282   6.456
19808SOL    HW164271   6.118   4.349   6.388
19808SOL    HW264272   6.189   4.293   6.510
19809SOL     OW64273   6.845   5.096   6.014
19809SOL    HW164274   6.898   5.173   6.034
19809SOL    HW264275   6.757   5.119   6.044
19810SOL     OW64276   6.908   5.168   6.742
19810SOL    HW164277   6.936   5.224   6.814
19810SOL    HW264278   6.954   5.086   6.756
19811SOL     OW64279   7.215   4.275   6.075
19811SOL    HW164280   7.241   4.356   6.120
19811SOL    HW264281   7.264   4.276   5.993
19812SOL     OW64282   5.923   5.247   6.896
19812SOL    HW164283   5.921   5.198   6.814
19812SOL    HW264284   6.013   5.276   6.904
19813SOL     OW64285   6.054   4.392   7.217
19813SOL    HW164286   6.097   4.458   7.162
19813SOL    HW264287   6.126   4.340   7.253
19814SOL     OW64288   7.193   4.520   7.302
19814SOL    HW164289   7.108   4.560   7.286
19814SOL    HW264290   7.249   4.555   7.232
19815SOL     OW64291   6.551   3.868   7.295
19815SOL    HW164292   6.622   3.932   7.296
19815SOL    HW264293   6.591   3.788   7.262
19816SOL     OW64294   6.087   3.773   7.351
19816SOL    HW164295   6.057   3.701   7.296
19816SOL    HW264296   6.011   3.831   7.358
19817SOL     OW64297   6.104   4.686   6.638
19817SOL    HW164298   6.184   4.738   6.640
19817SOL    HW264299   6.097   4.650   6.726
19818SOL     OW64300   6.890   4.531   6.587
19818SOL    HW164301   6.937   4.584   6.523
19818SOL    HW264302   6.942   4.452   6.596
19819SOL     OW64303   6.761   4.241   5.874
19819SOL    HW164304   6.768   4.163   5.928
19819SOL    HW264305   6.851   4.273   5.866
19820SOL     OW64306   5.890   3.899   6.838
19820SOL    HW164307   5.881   3.915   6.932
19820SOL    HW264308   5.872   3.806   6.827
19821SOL     OW64309   5.588   5.040   6.849
19821SOL    HW164310   5.625   4.984   6.917
19821SOL    HW264311   5.611   5.129   6.876
19822SOL     OW64312   6.329   4.324   6.623
19822SOL    HW164313   6.395   4.288   6.564
19822SOL    HW264314   6.377   4.384   6.680
19823SOL     OW64315   7.313   4.703   7.475
19823SOL    HW164316   7.273   4.634   7.421
19823SOL    HW264317   7.250   4.719   7.544
19824SOL     OW64318   5.875   3.802   6.232
19824SOL    HW164319   5.961   3.815   6.192
19824SOL    HW264320   5.895   3.761   6.317
19825SOL     OW64321   7.137   4.023   5.984
19825SOL    HW164322   7.223   3.986   6.000
19825SOL    HW264323   7.143   4.113   6.016
19826SOL     OW64324   6.630   4.465   6.511
19826SOL    HW164325   6.717   4.471   6.550
19826SOL    HW264326   6.613   4.370   6.507
19827SOL     OW64327   6.543   5.237   7.284
19827SOL    HW164328   6.575   5.324   7.260
19827SOL    HW264329   6.617   5.179   7.265
19828SOL     OW64330   7.423   5.237   7.136
19828SOL    HW164331   7.456   5.283   7.059
19828SOL    HW264332   7.497   5.235   7.196
19829SOL     OW64333   5.944   4.607   7.380
19829SOL    HW164334   6.002   4.648   7.445
19829SOL    HW264335   6.000   4.546   7.332
19830SOL     OW64336   7.026   4.010   5.719
19830SOL    HW164337   6.980   3.927   5.735
19830SOL    HW264338   7.079   4.023   5.797
19831SOL     OW64339   6.833   4.517   5.606
19831SOL    HW164340   6.880   4.434   5.617
19831SOL    HW264341   6.876   4.559   5.531
19832SOL     OW64342   6.632   5.079   6.442
19832SOL    HW164343   6.644   5.006   6.381
19832SOL    HW264344   6.687   5.149   6.407
19833SOL     OW64345   5.877   4.563   6.556
19833SOL    HW164346   5.962   4.602   6.576
19833SOL    HW264347   5.887   4.470   6.579
19834SOL     OW64348   5.895   4.287   6.621
19834SOL    HW164349   5.857   4.200   6.613
19834SOL    HW264350   5.973   4.284   6.565
19835SOL     OW64351   6.736   4.080   7.274
19835SOL    HW164352   6.698   4.129   7.346
19835SOL    HW264353   6.824   4.116   7.264
19836SOL     OW64354   6.753   3.911   7.055
19836SOL    HW164355   6.753   3.968   7.132
19836SOL    HW264356   6.805   3.958   6.990
19837SOL     OW64357   5.630   5.029   5.778
19837SOL    HW164358   5.542   5.059   5.752
19837SOL    HW264359   5.615   4.943   5.817
19838SOL     OW64360   5.657   5.496   6.502
19838SOL    HW164361   5.642   5.417   6.450
19838SOL    HW264362   5.751   5.511   6.496
19839SOL     OW64363   6.067   5.294   6.496
19839SOL    HW164364   6.139   5.353   6.519
19839SOL    HW264365   6.105   5.233   6.433
19840SOL     OW64366   6.466   4.460   6.825
19840SOL    HW164367   6.561   4.446   6.832
19840SOL    HW264368   6.429   4.406   6.895
19841SOL     OW64369   5.629   4.258   6.742
19841SOL    HW164370   5.662   4.177   6.703
19841SOL    HW264371   5.696   4.323   6.722
19842SOL     OW64372   5.818   4.305   7.358
19842SOL    HW164373   5.910   4.331   7.356
19842SOL    HW264374   5.774   4.367   7.301
19843SOL     OW64375   6.958   4.659   7.240
19843SOL    HW164376   6.983   4.751   7.233
19843SOL    HW264377   6.957   4.627   7.150
19844SOL     OW64378   6.394   4.282   5.941
19844SOL    HW164379   6.423   4.209   5.886
19844SOL    HW264380   6.325   4.323   5.890
19845SOL     OW64381   7.262   4.318   6.747
19845SOL    HW164382   7.261   4.268   6.828
19845SOL    HW264383   7.348   4.298   6.708
19846SOL     OW64384   5.798   5.264   7.313
19846SOL    HW164385   5.760   5.290   7.397
19846SOL    HW264386   5.843   5.181   7.331
19847SOL     OW64387   6.203   4.177   6.819
19847SOL    HW164388   6.201   4.086   6.791
19847SOL    HW264389   6.251   4.223   6.750
19848SOL     OW64390   6.402   5.432   7.070
19848SOL    HW164391   6.439   5.372   7.005
19848SOL    HW264392   6.438   5.518   7.047
19849SOL     OW64393   6.012   4.203   5.735
19849SOL    HW164394   6.082   4.267   5.746
19849SOL    HW264395   5.931   4.253   5.743
19850SOL     OW64396   5.693   4.871   7.051
19850SOL    HW164397   5.712   4.832   7.136
19850SOL    HW264398   5.728   4.809   6.987
19851SOL     OW64399   6.815   4.719   6.789
19851SOL    HW164400   6.844   4.659   6.720
19851SOL    HW264401   6.766   4.786   6.743
19852SOL     OW64402   6.846   4.610   5.867
19852SOL    HW164403   6.773   4.571   5.916
19852SOL    HW264404   6.844   4.566   5.782
19853SOL     OW64405   7.320   5.499   6.681
19853SOL    HW164406   7.400   5.494   6.628
19853SOL    HW264407   7.312   5.412   6.720
19854SOL     OW64408   6.816   5.437   6.680
19854SOL    HW164409   6.899   5.473   6.648
19854SOL    HW264410   6.835   5.344   6.694
19855SOL     OW64411   5.690   4.942   6.607
19855SOL    HW164412   5.655   4.977   6.689
19855SOL    HW264413   5.618   4.889   6.571
19856SOL     OW64414   6.264   5.407   7.306
19856SOL    HW164415   6.203   5.480   7.318
19856SOL    HW264416   6.316   5.431   7.229
19857SOL     OW64417   7.376   3.908   6.056
19857SOL    HW164418   7.440   3.912   5.985
19857SOL    HW264419   7.368   3.815   6.075
19858SOL     OW64420   6.980   5.325   6.083
19858SOL    HW164421   7.039   5.360   6.016
19858SOL    HW264422   6.937   5.402   6.120
19859SOL     OW64423   5.688   5.548   7.435
19859SOL    HW164424   5.670   5.463   7.475
19859SOL    HW264425   5.744   5.593   7.498
19860SOL     OW64426   6.879   4.710   6.267
19860SOL    HW164427   6.949   4.650   6.294
19860SOL    HW264428   6.920   4.767   6.201
19861SOL     OW64429   6.356   5.076   7.071
19861SOL    HW164430   6.445   5.077   7.035
19861SOL    HW264431   6.302   5.045   6.999
19862SOL     OW64432   6.261   5.332   5.736
19862SOL    HW164433   6.262   5.377   5.651
19862SOL    HW264434   6.300   5.247   5.718
19863SOL     OW64435   7.204   5.497   6.996
19863SOL    HW164436   7.297   5.490   6.974
19863SOL    HW264437   7.189   5.591   7.008
19864SOL     OW64438   5.853   4.125   6.261
19864SOL    HW164439   5.926   4.141   6.201
19864SOL    HW264440   5.894   4.113   6.347
19865SOL     OW64441   6.795   5.264   5.640
19865SOL    HW164442   6.802   5.174   5.674
19865SOL    HW264443   6.723   5.261   5.578
19866SOL     OW64444   6.405   4.709   6.920
19866SOL    HW164445   6.431   4.630   6.873
19866SOL    HW264446   6.402   4.777   6.853
19867SOL     OW64447   6.432   4.659   5.855
19867SOL    HW164448   6.495   4.679   5.785
19867SOL    HW264449   6.479   4.600   5.913
19868SOL     OW64450   7.070   5.343   5.633
19868SOL    HW164451   6.977   5.323   5.620
19868SOL    HW264452   7.104   5.358   5.545
19869SOL     OW64453   5.934   5.039   7.087
19869SOL    HW164454   5.932   5.110   7.023
19869SOL    HW264455   5.855   4.988   7.069
19870SOL     OW64456   7.147   5.040   6.849
19870SOL    HW164457   7.197   5.016   6.927
19870SOL    HW264458   7.206   5.097   6.800
19871SOL     OW64459   6.632   4.840   6.307
19871SOL    HW164460   6.585   4.778   6.363
19871SOL    HW264461   6.714   4.796   6.287
19872SOL     OW64462   6.590   3.956   6.559
19872SOL    HW164463   6.547   3.912   6.485
19872SOL    HW264464   6.610   3.886   6.621
19873SOL     OW64465   6.221   5.228   6.071
19873SOL    HW164466   6.274   5.175   6.012
19873SOL    HW264467   6.161   5.275   6.014
19874SOL     OW64468   7.346   4.151   6.960
19874SOL    HW164469   7.432   4.193   6.966
19874SOL    HW264470   7.362   4.073   6.907
19875SOL     OW64471   5.872   4.987   5.954
19875SOL    HW164472   5.799   5.015   5.897
19875SOL    HW264473   5.856   5.032   6.037
19876SOL     OW64474   5.715   4.743   7.292
19876SOL    HW164475   5.643   4.728   7.352
19876SOL    HW264476   5.789   4.697   7.332
19877SOL     OW64477   6.303   3.986   7.067
19877SOL    HW164478   6.372   3.947   7.012
19877SOL    HW264479   6.334   3.973   7.156
19878SOL     OW64480   5.660   4.035   5.605
19878SOL    HW164481   5.590   4.012   5.543
19878SOL    HW264482   5.692   4.120   5.575
19879SOL     OW64483   6.977   4.588   6.978
19879SOL    HW164484   6.923   4.631   6.911
19879SOL    HW264485   7.065   4.588   6.940
19880SOL     OW64486   5.647   3.872   5.840
19880SOL    HW164487   5.637   3.930   5.764
19880SOL    HW264488   5.734   3.834   5.830
19881SOL     OW64489   6.794   5.007   5.760
19881SOL    HW164490   6.755   4.920   5.775
19881SOL    HW264491   6.817   5.037   5.848
19882SOL     OW64492   6.213   4.560   7.061
19882SOL    HW164493   6.271   4.632   7.037
19882SOL    HW264494   6.267   4.482   7.052
19883SOL     OW64495   7.061   5.513   6.577
19883SOL    HW164496   7.081   5.541   6.488
19883SOL    HW264497   7.146   5.496   6.617
19884SOL     OW64498   6.290   4.277   7.301
19884SOL    HW164499   6.358   4.329   7.344
19884SOL    HW264500   6.307   4.187   7.329
19885SOL     OW64501   7.020   4.937   7.196
19885SOL    HW164502   7.034   4.938   7.290
19885SOL    HW264503   7.107   4.953   7.158
19886SOL     OW64504   5.915   5.484   7.171
19886SOL    HW164505   5.830   5.526   7.155
19886SOL    HW264506   5.893   5.401   7.213
19887SOL     OW64507   7.217   4.577   6.849
19887SOL    HW164508   7.243   4.499   6.801
19887SOL    HW264509   7.204   4.644   6.781
19888SOL     OW64510   6.794   4.018   6.044
19888SOL    HW164511   6.867   3.956   6.049
19888SOL    HW264512   6.810   4.078   6.117
19889SOL     OW64513   6.126   4.489   6.273
19889SOL    HW164514   6.186   4.563   6.270
19889SOL    HW264515   6.090   4.483   6.185
19890SOL     OW64516   7.238   4.095   7.207
19890SOL    HW164517   7.275   4.132   7.126
19890SOL    HW264518   7.244   4.001   7.195
19891SOL     OW64519   7.312   4.654   7.098
19891SOL    HW164520   7.394   4.702   7.090
19891SOL    HW264521   7.293   4.625   7.008
19892SOL     OW64522   6.386   5.102   5.650
19892SOL    HW164523   6.424   5.084   5.736
19892SOL    HW264524   6.456   5.146   5.601
19893SOL     OW64525   6.251   5.492   6.523
19893SOL    HW164526   6.239   5.587   6.510
19893SOL    HW264527   6.346   5.480   6.521
19894SOL     OW64528   6.469   4.682   6.477
19894SOL    HW164529   6.521   4.604   6.494
19894SOL    HW264530   6.451   4.718   6.564
19895SOL     OW64531   6.613   4.682   5.651
19895SOL    HW164532   6.613   4.741   5.576
19895SOL    HW264533   6.695   4.633   5.644
19896SOL     OW64534   7.443   5.221   6.462
19896SOL    HW164535   7.436   5.210   6.367
19896SOL    HW264536   7.480   5.138   6.493
19897SOL     OW64537   5.881   5.023   7.434
19897SOL    HW164538   5.820   4.952   7.415
19897SOL    HW264539   5.877   5.034   7.529
19898SOL     OW64540   5.646   4.928   6.251
19898SOL    HW164541   5.713   4.877   6.297
19898SOL    HW264542   5.694   5.003   6.215
19899SOL     OW64543   7.396   3.903   6.829
19899SOL    HW164544   7.374   3.821   6.786
19899SOL    HW264545   7.482   3.927   6.794
19900SOL     OW64546   6.086   4.170   6.111
19900SOL    HW164547   6.102   4.111   6.037
19900SOL    HW264548   6.170   4.176   6.156
19901SOL     OW64549   7.315   5.219   6.715
19901SOL    HW164550   7.343   5.220   6.624
19901SOL    HW264551   7.387   5.177   6.762
19902SOL     OW64552   5.964   4.282   6.890
19902SOL    HW164553   6.051   4.243   6.880
19902SOL    HW264554   5.929   4.282   6.801
19903SOL     OW64555   6.416   5.345   6.245
19903SOL    HW164556   6.416   5.431   6.202
19903SOL    HW264557   6.345   5.297   6.201
19904SOL     OW64558   6.990   3.976   6.669
19904SOL    HW164559   7.014   3.886   6.692
19904SOL    HW264560   6.958   4.014   6.751
19905SOL     OW64561   6.612   3.721   6.707
19905SOL    HW164562   6.566   3.661   6.648
19905SOL    HW264563   6.701   3.686   6.711
19906SOL     OW64564   6.393   5.056   5.933
19906SOL    HW164565   6.380   4.966   5.961
19906SOL    HW264566   6.471   5.085   5.980
19907SOL     OW64567   6.180   5.325   6.874
19907SOL    HW164568   6.181   5.414   6.909
19907SOL    HW264569   6.270   5.309   6.846
19908SOL     OW64570   6.928   3.758   5.779
19908SOL    HW164571   6.973   3.697   5.721
19908SOL    HW264572   6.840   3.721   5.789
19909SOL     OW64573   6.806   4.204   6.241
19909SOL    HW164574   6.790   4.298   6.242
19909SOL    HW264575   6.821   4.181   6.332
19910SOL     OW64576   7.150   3.911   6.453
19910SOL    HW164577   7.104   3.955   6.525
19910SOL    HW264578   7.176   3.982   6.395
19911SOL     OW64579   5.629   4.777   5.911
19911SOL    HW164580   5.723   4.769   5.899
19911SOL    HW264581   5.599   4.688   5.928
19912SOL     OW64582   6.481   5.397   5.914
19912SOL    HW164583   6.406   5.387   5.855
19912SOL    HW264584   6.454   5.466   5.975
19913SOL     OW64585   5.809   4.395   7.627
19913SOL    HW164586   5.725   4.363   7.661
19913SOL    HW264587   5.806   4.375   7.533
19914SOL     OW64588   5.775   4.032   8.471
19914SOL    HW164589   5.804   3.993   8.553
19914SOL    HW264590   5.700   3.980   8.444
19915SOL     OW64591   5.556   4.123   8.104
19915SOL    HW164592   5.475   4.139   8.153
19915SOL    HW264593   5.533   4.053   8.042
19916SOL     OW64594   6.217   5.081   8.547
19916SOL    HW164595   6.121   5.077   8.538
19916SOL    HW264596   6.231   5.119   8.634
19917SOL     OW64597   7.160   5.263   8.290
19917SOL    HW164598   7.132   5.342   8.337
19917SOL    HW264599   7.174   5.292   8.200
19918SOL     OW64600   6.677   4.453   8.149
19918SOL    HW164601   6.735   4.529   8.142
19918SOL    HW264602   6.640   4.459   8.237
19919SOL     OW64603   7.316   4.302   7.688
19919SOL    HW164604   7.311   4.307   7.592
19919SOL    HW264605   7.302   4.209   7.707
19920SOL     OW64606   6.320   4.826   8.488
19920SOL    HW164607   6.273   4.907   8.509
19920SOL    HW264608   6.410   4.842   8.517
19921SOL     OW64609   6.482   4.468   9.273
19921SOL    HW164610   6.507   4.533   9.339
19921SOL    HW264611   6.508   4.508   9.189
19922SOL     OW64612   6.266   4.699   8.065
19922SOL    HW164613   6.332   4.688   8.133
19922SOL    HW264614   6.206   4.765   8.102
19923SOL     OW64615   6.309   4.887   9.282
19923SOL    HW164616   6.356   4.960   9.322
19923SOL    HW264617   6.230   4.927   9.245
19924SOL     OW64618   5.946   5.114   8.491
19924SOL    HW164619   5.863   5.071   8.475
19924SOL    HW264620   5.964   5.163   8.410
19925SOL     OW64621   7.068   5.252   8.792
19925SOL    HW164622   7.105   5.339   8.804
19925SOL    HW264623   6.997   5.246   8.855
19926SOL     OW64624   6.007   4.107   8.951
19926SOL    HW164625   6.098   4.081   8.941
19926SOL    HW264626   5.974   4.053   9.023
19927SOL     OW64627   7.140   4.164   8.184
19927SOL    HW164628   7.164   4.199   8.099
19927SOL    HW264629   7.196   4.211   8.246
19928SOL     OW64630   5.823   5.438   7.908
19928SOL    HW164631   5.842   5.504   7.974
19928SOL    HW264632   5.895   5.446   7.845
19929SOL     OW64633   6.707   5.068   9.136
19929SOL    HW164634   6.746   5.051   9.222
19929SOL    HW264635   6.653   4.991   9.119
19930SOL     OW64636   5.795   5.166   7.955
19930SOL    HW164637   5.801   5.261   7.960
19930SOL    HW264638   5.762   5.138   8.040
19931SOL     OW64639   5.876   4.802   8.329
19931SOL    HW164640   5.915   4.738   8.389
19931SOL    HW264641   5.826   4.860   8.385
19932SOL     OW64642   6.162   5.592   8.864
19932SOL    HW164643   6.104   5.570   8.937
19932SOL    HW264644   6.212   5.667   8.896
19933SOL     OW64645   6.121   4.726   7.573
19933SOL    HW164646   6.181   4.761   7.507
19933SOL    HW264647   6.167   4.737   7.656
19934SOL     OW64648   7.136   3.916   8.867
19934SOL    HW164649   7.203   3.984   8.862
19934SOL    HW264650   7.112   3.912   8.960
19935SOL     OW64651   5.745   4.340   8.097
19935SOL    HW164652   5.677   4.272   8.098
19935SOL    HW264653   5.707   4.414   8.144
19936SOL     OW64654   7.441   5.454   7.786
19936SOL    HW164655   7.524   5.437   7.830
19936SOL    HW264656   7.449   5.543   7.753
19937SOL     OW64657   5.655   5.296   7.552
19937SOL    HW164658   5.633   5.205   7.570
19937SOL    HW264659   5.630   5.344   7.631
19938SOL     OW64660   7.254   4.530   8.079
19938SOL    HW164661   7.330   4.537   8.136
19938SOL    HW264662   7.280   4.573   7.997
19939SOL     OW64663   7.254   4.837   7.891
19939SOL    HW164664   7.336   4.819   7.846
19939SOL    HW264665   7.279   4.887   7.969
19940SOL     OW64666   5.759   4.498   8.993
19940SOL    HW164667   5.786   4.550   9.069
19940SOL    HW264668   5.665   4.511   8.988
19941SOL     OW64669   6.186   5.103   8.083
19941SOL    HW164670   6.140   5.020   8.099
19941SOL    HW264671   6.162   5.158   8.157
19942SOL     OW64672   6.882   4.937   8.876
19942SOL    HW164673   6.964   4.921   8.829
19942SOL    HW264674   6.908   4.943   8.968
19943SOL     OW64675   6.403   3.729   7.982
19943SOL    HW164676   6.447   3.812   7.960
19943SOL    HW264677   6.310   3.751   7.979
19944SOL     OW64678   5.771   4.638   8.749
19944SOL    HW164679   5.857   4.615   8.715
19944SOL    HW264680   5.758   4.581   8.824
19945SOL     OW64681   7.104   4.755   7.665
19945SOL    HW164682   7.033   4.702   7.701
19945SOL    HW264683   7.155   4.781   7.742
19946SOL     OW64684   6.876   5.496   9.085
19946SOL    HW164685   6.840   5.574   9.045
19946SOL    HW264686   6.970   5.501   9.066
19947SOL     OW64687   5.919   3.975   9.172
19947SOL    HW164688   5.976   3.905   9.203
19947SOL    HW264689   5.853   3.985   9.241
19948SOL     OW64690   7.243   5.398   8.060
19948SOL    HW164691   7.230   5.479   8.009
19948SOL    HW264692   7.338   5.385   8.060
19949SOL     OW64693   6.236   4.419   7.714
19949SOL    HW164694   6.313   4.470   7.690
19949SOL    HW264695   6.193   4.471   7.781
19950SOL     OW64696   6.848   3.990   8.423
19950SOL    HW164697   6.820   3.901   8.443
19950SOL    HW264698   6.925   4.005   8.478
19951SOL     OW64699   7.154   5.429   7.735
19951SOL    HW164700   7.247   5.434   7.760
19951SOL    HW264701   7.155   5.387   7.650
19952SOL     OW64702   6.332   4.312   8.865
19952SOL    HW164703   6.342   4.316   8.960
19952SOL    HW264704   6.307   4.222   8.847
19953SOL     OW64705   6.979   4.184   9.116
19953SOL    HW164706   6.987   4.225   9.203
19953SOL    HW264707   7.020   4.099   9.127
19954SOL     OW64708   6.544   4.582   9.026
19954SOL    HW164709   6.603   4.515   8.990
19954SOL    HW264710   6.511   4.629   8.950
19955SOL     OW64711   6.444   4.130   8.618
19955SOL    HW164712   6.508   4.193   8.650
19955SOL    HW264713   6.462   4.050   8.668
19956SOL     OW64714   6.652   4.428   7.873
19956SOL    HW164715   6.666   4.440   7.967
19956SOL    HW264716   6.580   4.366   7.866
19957SOL     OW64717   5.670   4.577   8.228
19957SOL    HW164718   5.757   4.567   8.266
19957SOL    HW264719   5.631   4.650   8.276
19958SOL     OW64720   6.488   4.054   7.653
19958SOL    HW164721   6.537   4.108   7.591
19958SOL    HW264722   6.475   3.971   7.608
19959SOL     OW64723   7.289   4.295   9.274
19959SOL    HW164724   7.246   4.355   9.213
19959SOL    HW264725   7.308   4.217   9.222
19960SOL     OW64726   6.995   4.871   8.001
19960SOL    HW164727   7.080   4.859   7.959
19960SOL    HW264728   6.950   4.936   7.947
19961SOL     OW64729   6.172   3.891   8.406
19961SOL    HW164730   6.144   3.879   8.497
19961SOL    HW264731   6.220   3.974   8.406
19962SOL     OW64732   6.606   5.191   7.965
19962SOL    HW164733   6.619   5.270   7.913
19962SOL    HW264734   6.643   5.212   8.051
19963SOL     OW64735   5.937   5.554   8.345
19963SOL    HW164736   6.028   5.528   8.354
19963SOL    HW264737   5.931   5.639   8.389
19964SOL     OW64738   7.342   4.775   8.309
19964SOL    HW164739   7.330   4.845   8.245
19964SOL    HW264740   7.304   4.809   8.390
19965SOL     OW64741   6.852   5.243   8.960
19965SOL    HW164742   6.807   5.179   9.015
19965SOL    HW264743   6.845   5.326   9.009
19966SOL     OW64744   5.873   4.666   7.698
19966SOL    HW164745   5.955   4.684   7.652
19966SOL    HW264746   5.855   4.574   7.680
19967SOL     OW64747   7.026   4.483   8.230
19967SOL    HW164748   7.049   4.419   8.298
19967SOL    HW264749   7.109   4.500   8.185
19968SOL     OW64750   6.075   4.999   9.174
19968SOL    HW164751   6.033   4.994   9.088
19968SOL    HW264752   6.002   5.003   9.236
19969SOL     OW64753   6.765   5.436   7.663
19969SOL    HW164754   6.813   5.395   7.735
19969SOL    HW264755   6.775   5.374   7.591
19970SOL     OW64756   5.676   3.999   8.952
19970SOL    HW164757   5.649   4.048   9.030
19970SOL    HW264758   5.694   3.911   8.984
19971SOL     OW64759   7.203   5.094   7.574
19971SOL    HW164760   7.174   5.182   7.548
19971SOL    HW264761   7.143   5.035   7.528
19972SOL     OW64762   6.042   5.504   7.746
19972SOL    HW164763   6.090   5.549   7.815
19972SOL    HW264764   6.110   5.462   7.692
19973SOL     OW64765   6.982   3.844   7.908
19973SOL    HW164766   6.976   3.811   7.819
19973SOL    HW264767   7.075   3.846   7.927
19974SOL     OW64768   5.857   5.525   8.780
19974SOL    HW164769   5.869   5.500   8.872
19974SOL    HW264770   5.922   5.473   8.732
19975SOL     OW64771   6.494   5.476   8.374
19975SOL    HW164772   6.544   5.531   8.435
19975SOL    HW264773   6.511   5.387   8.402
19976SOL     OW64774   7.104   3.926   9.156
19976SOL    HW164775   7.101   3.959   9.246
19976SOL    HW264776   7.081   3.834   9.163
19977SOL     OW64777   6.246   3.835   7.568
19977SOL    HW164778   6.301   3.766   7.606
19977SOL    HW264779   6.196   3.791   7.500
19978SOL     OW64780   6.376   4.019   9.181
19978SOL    HW164781   6.466   3.988   9.187
19978SOL    HW264782   6.328   3.965   9.245
19979SOL     OW64783   6.461   5.250   8.698
19979SOL    HW164784   6.465   5.251   8.602
19979SOL    HW264785   6.535   5.196   8.724
19980SOL     OW64786   6.955   4.346   8.887
19980SOL    HW164787   6.983   4.302   8.968
19980SOL    HW264788   7.006   4.427   8.886
19981SOL     OW64789   6.445   5.191   8.420
19981SOL    HW164790   6.515   5.133   8.391
19981SOL    HW264791   6.378   5.133   8.455
19982SOL     OW64792   6.139   3.797   7.943
19982SOL    HW164793   6.068   3.797   8.007
19982SOL    HW264794   6.118   3.869   7.884
19983SOL     OW64795   7.009   4.923   7.469
19983SOL    HW164796   7.048   4.858   7.527
19983SOL    HW264797   6.930   4.952   7.515
19984SOL     OW64798   5.877   3.809   7.654
19984SOL    HW164799   5.941   3.876   7.678
19984SOL    HW264800   5.913   3.728   7.690
19985SOL     OW64801   6.539   3.962   7.911
19985SOL    HW164802   6.515   3.986   7.821
19985SOL    HW264803   6.633   3.977   7.916
19986SOL     OW64804   6.684   4.379   8.895
19986SOL    HW164805   6.669   4.310   8.959
19986SOL    HW264806   6.779   4.382   8.884
19987SOL     OW64807   6.746   5.281   8.188
19987SOL    HW164808   6.782   5.351   8.133
19987SOL    HW264809   6.775   5.303   8.277
19988SOL     OW64810   6.055   4.864   8.130
19988SOL    HW164811   5.998   4.847   8.205
19988SOL    HW264812   5.997   4.855   8.054
19989SOL     OW64813   6.831   5.507   8.055
19989SOL    HW164814   6.891   5.572   8.019
19989SOL    HW264815   6.765   5.559   8.101
19990SOL     OW64816   6.629   4.226   7.485
19990SOL    HW164817   6.597   4.312   7.457
19990SOL    HW264818   6.695   4.246   7.551
19991SOL     OW64819   6.107   3.887   8.676
19991SOL    HW164820   6.149   3.831   8.742
19991SOL    HW264821   6.016   3.895   8.705
19992SOL     OW64822   6.532   4.145   8.123
19992SOL    HW164823   6.511   4.227   8.078
19992SOL    HW264824   6.520   4.078   8.057
19993SOL     OW64825   6.622   3.697   8.148
19993SOL    HW164826   6.553   3.701   8.082
19993SOL    HW264827   6.588   3.636   8.214
19994SOL     OW64828   7.018   4.931   8.276
19994SOL    HW164829   6.999   4.843   8.308
19994SOL    HW264830   7.016   4.923   8.181
19995SOL     OW64831   7.040   4.311   8.457
19995SOL    HW164832   7.004   4.228   8.486
19995SOL    HW264833   7.111   4.330   8.519
19996SOL     OW64834   7.402   4.524   7.829
19996SOL    HW164835   7.471   4.485   7.882
19996SOL    HW264836   7.376   4.455   7.768
19997SOL     OW64837   6.105   5.152   7.623
19997SOL    HW164838   6.017   5.142   7.660
19997SOL    HW264839   6.145   5.066   7.632
19998SOL     OW64840   7.328   4.985   8.118
19998SOL    HW164841   7.421   4.959   8.116
19998SOL    HW264842   7.330   5.080   8.122
19999SOL     OW64843   6.982   4.303   7.511
19999SOL    HW164844   6.940   4.268   7.590
19999SOL    HW264845   7.076   4.289   7.525
20000SOL     OW64846   6.081   3.985   7.736
20000SOL    HW164847   6.149   3.941   7.686
20000SOL    HW264848   6.076   4.073   7.696
20001SOL     OW64849   7.314   4.989   9.005
20001SOL    HW164850   7.393   4.939   8.990
20001SOL    HW264851   7.344   5.078   9.024
20002SOL     OW64852   6.663   5.052   8.756
20002SOL    HW164853   6.592   5.033   8.818
20002SOL    HW264854   6.743   5.028   8.803
20003SOL     OW64855   7.180   5.387   9.066
20003SOL    HW164856   7.188   5.438   8.986
20003SOL    HW264857   7.261   5.335   9.070
20004SOL     OW64858   6.575   4.899   8.547
20004SOL    HW164859   6.610   4.951   8.620
20004SOL    HW264860   6.617   4.935   8.469
20005SOL     OW64861   7.198   4.873   8.540
20005SOL    HW164862   7.178   4.909   8.627
20005SOL    HW264863   7.218   4.781   8.556
20006SOL     OW64864   6.487   3.915   8.788
20006SOL    HW164865   6.491   3.819   8.785
20006SOL    HW264866   6.569   3.942   8.828
20007SOL     OW64867   6.539   4.846   9.128
20007SOL    HW164868   6.468   4.847   9.192
20007SOL    HW264869   6.563   4.754   9.120
20008SOL     OW64870   6.287   4.766   7.799
20008SOL    HW164871   6.273   4.748   7.891
20008SOL    HW264872   6.355   4.705   7.772
20009SOL     OW64873   6.020   4.534   8.696
20009SOL    HW164874   6.087   4.556   8.761
20009SOL    HW264875   5.992   4.446   8.719
20010SOL     OW64876   6.874   4.140   8.721
20010SOL    HW164877   6.903   4.211   8.778
20010SOL    HW264878   6.826   4.081   8.778
20011SOL     OW64879   5.691   5.296   8.795
20011SOL    HW164880   5.699   5.391   8.782
20011SOL    HW264881   5.782   5.265   8.793
20012SOL     OW64882   5.888   4.847   7.911
20012SOL    HW164883   5.887   4.922   7.851
20012SOL    HW264884   5.883   4.771   7.854
20013SOL     OW64885   6.181   4.237   8.223
20013SOL    HW164886   6.250   4.174   8.200
20013SOL    HW264887   6.219   4.289   8.293
20014SOL     OW64888   6.843   5.068   7.867
20014SOL    HW164889   6.890   5.152   7.864
20014SOL    HW264890   6.765   5.087   7.918
20015SOL     OW64891   6.942   5.141   8.574
20015SOL    HW164892   6.981   5.183   8.650
20015SOL    HW264893   6.867   5.092   8.609
20016SOL     OW64894   7.187   4.300   7.943
20016SOL    HW164895   7.203   4.380   7.994
20016SOL    HW264896   7.234   4.314   7.861
20017SOL     OW64897   5.951   5.222   8.745
20017SOL    HW164898   5.948   5.185   8.656
20017SOL    HW264899   6.037   5.263   8.751
20018SOL     OW64900   6.080   4.420   9.054
20018SOL    HW164901   6.123   4.492   9.008
20018SOL    HW264902   6.150   4.375   9.100
20019SOL     OW64903   7.184   4.486   9.111
20019SOL    HW164904   7.106   4.540   9.125
20019SOL    HW264905   7.232   4.531   9.041
20020SOL     OW64906   6.613   3.882   9.250
20020SOL    HW164907   6.701   3.895   9.283
20020SOL    HW264908   6.587   3.796   9.284
20021SOL     OW64909   6.064   3.760   9.258
20021SOL    HW164910   6.054   3.697   9.187
20021SOL    HW264911   6.021   3.718   9.333
20022SOL     OW64912   6.131   4.623   8.462
20022SOL    HW164913   6.194   4.694   8.475
20022SOL    HW264914   6.098   4.602   8.549
20023SOL     OW64915   6.874   4.542   8.459
20023SOL    HW164916   6.918   4.551   8.375
20023SOL    HW264917   6.918   4.467   8.500
20024SOL     OW64918   6.794   4.244   7.714
20024SOL    HW164919   6.803   4.168   7.770
20024SOL    HW264920   6.758   4.312   7.772
20025SOL     OW64921   5.830   3.928   8.720
20025SOL    HW164922   5.790   3.957   8.802
20025SOL    HW264923   5.812   3.834   8.717
20026SOL     OW64924   5.596   5.058   8.696
20026SOL    HW164925   5.627   4.994   8.760
20026SOL    HW264926   5.620   5.143   8.733
20027SOL     OW64927   6.293   4.389   8.419
20027SOL    HW164928   6.355   4.375   8.491
20027SOL    HW264929   6.250   4.472   8.440
20028SOL     OW64930   7.309   4.683   9.293
20028SOL    HW164931   7.273   4.596   9.277
20028SOL    HW264932   7.264   4.713   9.372
20029SOL     OW64933   5.910   3.792   8.103
20029SOL    HW164934   5.878   3.873   8.144
20029SOL    HW264935   5.921   3.731   8.176
20030SOL     OW64936   7.199   4.068   7.780
20030SOL    HW164937   7.219   3.991   7.834
20030SOL    HW264938   7.168   4.133   7.843
20031SOL     OW64939   6.604   4.504   8.423
20031SOL    HW164940   6.570   4.470   8.507
20031SOL    HW264941   6.696   4.524   8.441
20032SOL     OW64942   6.599   5.326   9.152
20032SOL    HW164943   6.544   5.349   9.077
20032SOL    HW264944   6.610   5.232   9.146
20033SOL     OW64945   7.420   5.243   9.027
20033SOL    HW164946   7.454   5.273   8.942
20033SOL    HW264947   7.491   5.258   9.088
20034SOL     OW64948   5.846   4.651   9.213
20034SOL    HW164949   5.829   4.681   9.303
20034SOL    HW264950   5.935   4.617   9.216
20035SOL     OW64951   7.221   3.814   7.585
20035SOL    HW164952   7.129   3.808   7.610
20035SOL    HW264953   7.252   3.895   7.624
20036SOL     OW64954   6.849   4.539   7.463
20036SOL    HW164955   6.896   4.456   7.471
20036SOL    HW264956   6.887   4.581   7.386
20037SOL     OW64957   6.649   5.042   8.315
20037SOL    HW164958   6.649   4.972   8.250
20037SOL    HW264959   6.701   5.112   8.276
20038SOL     OW64960   5.939   4.482   8.325
20038SOL    HW164961   6.008   4.532   8.368
20038SOL    HW264962   5.928   4.404   8.380
20039SOL     OW64963   5.957   4.242   8.457
20039SOL    HW164964   5.902   4.164   8.456
20039SOL    HW264965   6.043   4.212   8.484
20040SOL     OW64966   6.704   4.178   9.086
20040SOL    HW164967   6.664   4.182   9.173
20040SOL    HW264968   6.798   4.185   9.103
20041SOL     OW64969   6.729   3.974   8.902
20041SOL    HW164970   6.716   4.036   8.974
20041SOL    HW264971   6.760   3.894   8.943
20042SOL     OW64972   5.600   5.016   7.618
20042SOL    HW164973   5.513   5.043   7.589
20042SOL    HW264974   5.587   4.928   7.654
20043SOL     OW64975   5.665   5.492   8.367
20043SOL    HW164976   5.644   5.413   8.318
20043SOL    HW264977   5.760   5.501   8.360
20044SOL     OW64978   6.132   5.248   8.316
20044SOL    HW164979   6.156   5.341   8.313
20044SOL    HW264980   6.177   5.215   8.394
20045SOL     OW64981   6.515   4.410   8.677
20045SOL    HW164982   6.589   4.410   8.738
20045SOL    HW264983   6.440   4.384   8.730
20046SOL     OW64984   5.656   4.259   8.600
20046SOL    HW164985   5.691   4.185   8.550
20046SOL    HW264986   5.726   4.282   8.661
20047SOL     OW64987   5.761   4.237   9.178
20047SOL    HW164988   5.741   4.151   9.216
20047SOL    HW264989   5.774   4.294   9.253
20048SOL     OW64990   6.972   4.665   9.109
20048SOL    HW164991   6.997   4.757   9.123
20048SOL    HW264992   6.980   4.652   9.014
20049SOL     OW64993   6.439   4.261   7.836
20049SOL    HW164994   6.454   4.185   7.781
20049SOL    HW264995   6.358   4.300   7.802
20050SOL     OW64996   7.235   4.342   8.643
20050SOL    HW164997   7.240   4.284   8.719
20050SOL    HW264998   7.323   4.338   8.605
20051SOL     OW64999   5.788   5.222   9.172
20051SOL    HW165000   5.762   5.294   9.229
20051SOL    HW265001   5.814   5.152   9.232
20052SOL     OW65002   6.171   4.139   8.588
20052SOL    HW165003   6.155   4.055   8.632
20052SOL    HW265004   6.266   4.151   8.594
20053SOL     OW65005   6.448   5.408   8.932
20053SOL    HW165006   6.451   5.341   8.863
20053SOL    HW265007   6.472   5.489   8.888
20054SOL     OW65008   6.044   4.233   7.618
20054SOL    HW165009   6.118   4.289   7.637
20054SOL    HW265010   5.967   4.286   7.639
20055SOL     OW65011   5.717   4.879   8.865
20055SOL    HW165012   5.689   4.850   8.952
20055SOL    HW265013   5.736   4.797   8.818
20056SOL     OW65014   6.919   4.747   8.642
20056SOL    HW165015   6.895   4.680   8.579
20056SOL    HW265016   6.838   4.768   8.688
20057SOL     OW65017   6.873   4.612   7.734
20057SOL    HW165018   6.819   4.553   7.787
20057SOL    HW265019   6.865   4.577   7.645
20058SOL     OW65020   7.317   5.455   8.566
20058SOL    HW165021   7.397   5.480   8.520
20058SOL    HW265022   7.321   5.359   8.571
20059SOL     OW65023   6.850   5.361   8.425
20059SOL    HW165024   6.922   5.424   8.423
20059SOL    HW265025   6.880   5.293   8.485
20060SOL     OW65026   5.708   4.969   8.461
20060SOL    HW165027   5.670   5.000   8.544
20060SOL    HW265028   5.638   4.918   8.421
20061SOL     OW65029   6.275   5.403   9.151
20061SOL    HW165030   6.208   5.471   9.153
20061SOL    HW265031   6.325   5.421   9.072
20062SOL     OW65032   7.260   3.851   7.935
20062SOL    HW165033   7.344   3.850   7.888
20062SOL    HW265034   7.260   3.770   7.986
20063SOL     OW65035   6.927   5.330   7.862
20063SOL    HW165036   7.014   5.356   7.832
20063SOL    HW265037   6.909   5.387   7.937
20064SOL     OW65038   6.854   4.663   8.115
20064SOL    HW165039   6.921   4.603   8.146
20064SOL    HW265040   6.901   4.730   8.065
20065SOL     OW65041   6.450   4.988   8.914
20065SOL    HW165042   6.481   4.943   8.992
20065SOL    HW265043   6.383   5.048   8.946
20066SOL     OW65044   6.244   5.388   7.591
20066SOL    HW165045   6.263   5.394   7.497
20066SOL    HW265046   6.198   5.304   7.600
20067SOL     OW65047   7.183   5.506   8.813
20067SOL    HW165048   7.241   5.506   8.737
20067SOL    HW265049   7.171   5.599   8.834
20068SOL     OW65050   7.433   3.878   8.414
20068SOL    HW165051   7.460   3.787   8.400
20068SOL    HW265052   7.344   3.881   8.378
20069SOL     OW65053   5.814   4.041   8.190
20069SOL    HW165054   5.724   4.065   8.166
20069SOL    HW265055   5.813   4.038   8.286
20070SOL     OW65056   6.814   5.237   7.475
20070SOL    HW165057   6.806   5.158   7.529
20070SOL    HW265058   6.800   5.206   7.385
20071SOL     OW65059   6.444   4.732   8.809
20071SOL    HW165060   6.492   4.742   8.727
20071SOL    HW265061   6.437   4.821   8.844
20072SOL     OW65062   6.471   4.582   7.720
20072SOL    HW165063   6.525   4.622   7.651
20072SOL    HW265064   6.535   4.538   7.777
20073SOL     OW65065   7.086   5.329   7.488
20073SOL    HW165066   6.993   5.314   7.471
20073SOL    HW265067   7.124   5.345   7.402
20074SOL     OW65068   5.952   5.010   8.930
20074SOL    HW165069   5.953   5.090   8.878
20074SOL    HW265070   5.870   4.967   8.906
20075SOL     OW65071   7.144   4.981   8.789
20075SOL    HW165072   7.207   4.963   8.859
20075SOL    HW265073   7.117   5.072   8.805
20076SOL     OW65074   6.632   4.832   8.141
20076SOL    HW165075   6.566   4.775   8.181
20076SOL    HW265076   6.707   4.775   8.127
20077SOL     OW65077   6.582   3.894   8.337
20077SOL    HW165078   6.591   3.828   8.268
20077SOL    HW265079   6.585   3.844   8.418
20078SOL     OW65080   7.328   4.149   8.840
20078SOL    HW165081   7.406   4.204   8.842
20078SOL    HW265082   7.351   4.078   8.779
20079SOL     OW65083   5.852   5.060   7.715
20079SOL    HW165084   5.762   5.047   7.685
20079SOL    HW265085   5.843   5.106   7.798
20080SOL     OW65086   5.618   4.785   9.112
20080SOL    HW165087   5.557   4.756   9.180
20080SOL    HW265088   5.705   4.761   9.145
20081SOL     OW65089   6.276   4.038   8.922
20081SOL    HW165090   6.340   3.987   8.873
20081SOL    HW265091   6.303   4.030   9.013
20082SOL     OW65092   5.659   4.092   7.469
20082SOL    HW165093   5.576   4.139   7.478
20082SOL    HW265094   5.720   4.157   7.433
20083SOL     OW65095   7.051   4.613   8.851
20083SOL    HW165096   7.024   4.663   8.774
20083SOL    HW265097   7.144   4.631   8.859
20084SOL     OW65098   5.617   3.885   7.699
20084SOL    HW165099   5.611   3.945   7.624
20084SOL    HW265100   5.708   3.857   7.700
20085SOL     OW65101   6.780   4.995   7.612
20085SOL    HW165102   6.743   4.907   7.622
20085SOL    HW265103   6.809   5.019   7.700
20086SOL     OW65104   6.228   4.567   8.866
20086SOL    HW165105   6.297   4.632   8.857
20086SOL    HW265106   6.274   4.483   8.864
20087SOL     OW65107   7.093   5.505   8.411
20087SOL    HW165108   7.102   5.591   8.371
20087SOL    HW265109   7.163   5.500   8.475
20088SOL     OW65110   6.313   4.293   9.141
20088SOL    HW165111   6.366   4.348   9.199
20088SOL    HW265112   6.335   4.203   9.166
20089SOL     OW65113   7.059   4.931   9.115
20089SOL    HW165114   7.063   4.962   9.205
20089SOL    HW265115   7.147   4.945   9.081
20090SOL     OW65116   5.909   5.431   9.028
20090SOL    HW165117   5.876   5.354   9.073
20090SOL    HW265118   5.963   5.476   9.093
20091SOL     OW65119   7.289   4.618   8.608
20091SOL    HW165120   7.253   4.531   8.627
20091SOL    HW265121   7.382   4.602   8.593
20092SOL     OW65122   6.802   4.052   7.923
20092SOL    HW165123   6.864   3.980   7.915
20092SOL    HW265124   6.828   4.097   8.004
20093SOL     OW65125   6.063   4.508   8.073
20093SOL    HW165126   6.141   4.561   8.061
20093SOL    HW265127   6.021   4.543   8.151
20094SOL     OW65128   7.339   4.072   9.117
20094SOL    HW165129   7.337   4.094   9.024
20094SOL    HW265130   7.268   4.009   9.128
20095SOL     OW65131   7.320   4.646   8.922
20095SOL    HW165132   7.380   4.673   8.991
20095SOL    HW265133   7.371   4.653   8.842
20096SOL     OW65134   6.397   5.107   7.499
20096SOL    HW165135   6.392   5.108   7.594
20096SOL    HW265136   6.481   5.148   7.478
20097SOL     OW65137   6.217   5.516   8.337
20097SOL    HW165138   6.204   5.610   8.330
20097SOL    HW265139   6.310   5.506   8.360
20098SOL     OW65140   6.442   4.682   8.280
20098SOL    HW165141   6.491   4.614   8.327
20098SOL    HW265142   6.397   4.730   8.350
20099SOL     OW65143   6.622   4.681   7.516
20099SOL    HW165144   6.616   4.746   7.446
20099SOL    HW265145   6.706   4.637   7.500
20100SOL     OW65146   7.444   5.236   8.256
20100SOL    HW165147   7.356   5.247   8.290
20100SOL    HW265148   7.484   5.170   8.313
20101SOL     OW65149   5.854   5.018   9.356
20101SOL    HW165150   5.848   4.929   9.391
20101SOL    HW265151   5.901   5.067   9.423
20102SOL     OW65152   5.716   4.929   8.117
20102SOL    HW165153   5.755   4.884   8.192
20102SOL    HW265154   5.769   4.901   8.042
20103SOL     OW65155   6.271   5.146   9.043
20103SOL    HW165156   6.202   5.096   9.088
20103SOL    HW265157   6.271   5.231   9.087
20104SOL     OW65158   7.380   3.937   8.682
20104SOL    HW165159   7.448   3.905   8.741
20104SOL    HW265160   7.409   3.909   8.595
20105SOL     OW65161   5.983   4.126   7.975
20105SOL    HW165162   6.015   4.076   7.900
20105SOL    HW265163   5.930   4.063   8.025
20106SOL     OW65164   7.256   5.178   8.588
20106SOL    HW165165   7.206   5.205   8.665
20106SOL    HW265166   7.331   5.130   8.623
20107SOL     OW65167   5.923   4.272   8.747
20107SOL    HW165168   5.959   4.198   8.795
20107SOL    HW265169   5.952   4.260   8.657
20108SOL     OW65170   6.404   5.301   8.164
20108SOL    HW165171   6.420   5.394   8.182
20108SOL    HW265172   6.411   5.258   8.249
20109SOL     OW65173   7.074   4.016   8.583
20109SOL    HW165174   7.135   3.967   8.639
20109SOL    HW265175   7.012   4.055   8.645
20110SOL     OW65176   6.642   3.704   8.531
20110SOL    HW165177   6.619   3.698   8.624
20110SOL    HW265178   6.718   3.647   8.521
20111SOL     OW65179   6.397   5.024   7.793
20111SOL    HW165180   6.354   4.939   7.794
20111SOL    HW265181   6.489   5.005   7.810
20112SOL     OW65182   6.195   5.346   8.727
20112SOL    HW165183   6.191   5.430   8.773
20112SOL    HW265184   6.287   5.322   8.729
20113SOL     OW65185   6.955   3.755   7.648
20113SOL    HW165186   6.988   3.686   7.591
20113SOL    HW265187   6.860   3.750   7.642
20114SOL     OW65188   6.863   4.190   8.166
20114SOL    HW165189   6.862   4.285   8.154
20114SOL    HW265190   6.955   4.168   8.182
20115SOL     OW65191   7.168   3.923   8.339
20115SOL    HW165192   7.139   3.960   8.422
20115SOL    HW265193   7.149   3.991   8.275
20116SOL     OW65194   5.611   4.757   7.746
20116SOL    HW165195   5.702   4.747   7.720
20116SOL    HW265196   5.586   4.672   7.782
20117SOL     OW65197   6.393   5.364   7.829
20117SOL    HW165198   6.358   5.387   7.743
20117SOL    HW265199   6.413   5.449   7.870
20118SOL     OW65200   5.810   4.349   9.419
20118SOL    HW165201   5.737   4.308   9.465
20118SOL    HW265202   5.888   4.317   9.464
20119SOL     OW65203   7.394   4.325   9.521
20119SOL    HW165204   7.360   4.319   9.431
20119SOL    HW265205   7.352   4.253   9.567
20120SOL     OW65206   5.892   5.435   9.672
20120SOL    HW165207   5.880   5.487   9.751
20120SOL    HW265208   5.815   5.453   9.619
20121SOL     OW65209   6.169   4.711   9.456
20121SOL    HW165210   6.220   4.759   9.390
20121SOL    HW265211   6.203   4.742   9.540
20122SOL     OW65212   5.716   4.392   9.891
20122SOL    HW165213   5.649   4.325   9.904
20122SOL    HW265214   5.673   4.475   9.912
20123SOL     OW65215   7.462   5.459   9.603
20123SOL    HW165216   7.536   5.440   9.661
20123SOL    HW265217   7.461   5.555   9.595
20124SOL     OW65218   7.211   4.597   9.932
20124SOL    HW165219   7.293   4.582   9.978
20124SOL    HW265220   7.230   4.665   9.868
20125SOL     OW65221   7.252   4.845   9.789
20125SOL    HW165222   7.341   4.853   9.823
20125SOL    HW265223   7.196   4.880   9.859
20126SOL     OW65224   6.245   5.074   9.958
20126SOL    HW165225   6.172   5.052   0.016
20126SOL    HW265226   6.204   5.093   9.874
20127SOL     OW65227   6.408   3.760   9.772
20127SOL    HW165228   6.471   3.832   9.777
20127SOL    HW265229   6.325   3.799   9.801
20128SOL     OW65230   7.148   4.760   9.514
20128SOL    HW165231   7.067   4.713   9.532
20128SOL    HW265232   7.194   4.763   9.598
20129SOL     OW65233   6.216   4.457   9.580
20129SOL    HW165234   6.208   4.533   9.522
20129SOL    HW265235   6.203   4.493   9.668
20130SOL     OW65236   7.196   5.367   9.611
20130SOL    HW165237   7.287   5.388   9.627
20130SOL    HW265238   7.156   5.450   9.585
20131SOL     OW65239   6.631   4.406   9.741
20131SOL    HW165240   6.660   4.386   9.829
20131SOL    HW265241   6.547   4.360   9.732
20132SOL     OW65242   5.623   4.631   9.997
20132SOL    HW165243   5.655   4.656   0.083
20132SOL    HW265244   5.662   4.695   9.937
20133SOL     OW65245   6.447   4.066   9.510
20133SOL    HW165246   6.502   4.106   9.442
20133SOL    HW265247   6.406   3.991   9.467
20134SOL     OW65248   6.890   4.829   9.803
20134SOL    HW165249   6.922   4.853   9.890
20134SOL    HW265250   6.869   4.913   9.761
20135SOL     OW65251   6.591   5.165   9.778
20135SOL    HW165252   6.559   5.251   9.750
20135SOL    HW265253   6.564   5.158   9.870
20136SOL     OW65254   5.935   5.627   0.174
20136SOL    HW165255   5.965   5.563   0.239
20136SOL    HW265256   6.014   5.676   0.151
20137SOL     OW65257   5.831   4.764   9.471
20137SOL    HW165258   5.910   4.731   9.513
20137SOL    HW265259   5.764   4.760   9.539
20138SOL     OW65260   6.738   5.499   9.515
20138SOL    HW165261   6.673   5.474   9.581
20138SOL    HW265262   6.767   5.415   9.477
20139SOL     OW65263   6.150   5.418   9.583
20139SOL    HW165264   6.064   5.421   9.624
20139SOL    HW265265   6.164   5.506   9.550
20140SOL     OW65266   7.011   3.870   9.662
20140SOL    HW165267   6.956   3.792   9.663
20140SOL    HW265268   7.099   3.837   9.681
20141SOL     OW65269   5.972   4.320   9.818
20141SOL    HW165270   5.977   4.234   9.862
20141SOL    HW265271   5.885   4.353   9.840
20142SOL     OW65272   6.287   3.853   9.399
20142SOL    HW165273   6.333   3.776   9.434
20142SOL    HW265274   6.218   3.816   9.344
20143SOL     OW65275   6.146   3.851   9.820
20143SOL    HW165276   6.116   3.762   9.800
20143SOL    HW265277   6.131   3.900   9.739
20144SOL     OW65278   7.065   5.000   9.395
20144SOL    HW165279   7.104   4.921   9.433
20144SOL    HW265280   6.972   4.992   9.414
20145SOL     OW65281   5.931   3.758   9.517
20145SOL    HW165282   5.985   3.835   9.538
20145SOL    HW265283   5.973   3.686   9.565
20146SOL     OW65284   6.562   3.987   9.755
20146SOL    HW165285   6.534   4.013   9.667
20146SOL    HW265286   6.657   4.001   9.755
20147SOL     OW65287   5.945   4.825   0.040
20147SOL    HW165288   5.964   4.918   0.052
20147SOL    HW265289   5.881   4.823   9.969
20148SOL     OW65290   6.893   5.535   9.870
20148SOL    HW165291   6.927   5.619   9.840
20148SOL    HW265292   6.824   5.558   9.933
20149SOL     OW65293   6.606   4.225   9.342
20149SOL    HW165294   6.572   4.313   9.327
20149SOL    HW265295   6.671   4.235   9.412
20150SOL     OW65296   6.443   4.141   9.949
20150SOL    HW165297   6.402   4.201   9.887
20150SOL    HW265298   6.486   4.075   9.894
20151SOL     OW65299   7.412   4.571   9.640
20151SOL    HW165300   7.475   4.543   9.707
20151SOL    HW265301   7.405   4.497   9.581
20152SOL     OW65302   5.938   5.187   9.547
20152SOL    HW165303   6.011   5.161   9.603
20152SOL    HW265304   5.918   5.277   9.574
20153SOL     OW65305   6.973   4.291   9.371
20153SOL    HW165306   6.909   4.278   9.442
20153SOL    HW265307   7.048   4.237   9.396
20154SOL     OW65308   6.095   3.974   9.574
20154SOL    HW165309   6.169   3.958   9.516
20154SOL    HW265310   6.075   4.067   9.562
20155SOL     OW65311   6.289   4.757   9.701
20155SOL    HW165312   6.244   4.701   9.765
20155SOL    HW265313   6.371   4.711   9.683
20156SOL     OW65314   6.823   5.071   9.675
20156SOL    HW165315   6.880   5.145   9.697
20156SOL    HW265316   6.738   5.094   9.713
20157SOL     OW65317   7.190   4.379   9.757
20157SOL    HW165318   7.178   4.433   9.835
20157SOL    HW265319   7.253   4.427   9.704
20158SOL     OW65320   6.775   4.253   9.562
20158SOL    HW165321   6.800   4.180   9.619
20158SOL    HW265322   6.732   4.315   9.621
20159SOL     OW65323   5.861   3.789   9.949
20159SOL    HW165324   5.898   3.877   9.952
20159SOL    HW265325   5.901   3.744   0.024
20160SOL     OW65326   7.221   4.134   9.633
20160SOL    HW165327   7.252   4.065   9.692
20160SOL    HW265328   7.194   4.205   9.692
20161SOL     OW65329   7.091   4.028   9.412
20161SOL    HW165330   7.033   3.961   9.448
20161SOL    HW265331   7.143   4.057   9.487
20162SOL     OW65332   6.817   4.493   9.259
20162SOL    HW165333   6.876   4.427   9.297
20162SOL    HW265334   6.874   4.550   9.208
20163SOL     OW65335   6.393   4.270   9.694
20163SOL    HW165336   6.405   4.199   9.632
20163SOL    HW265337   6.334   4.331   9.650
20164SOL     OW65338   6.034   4.252   9.559
20164SOL    HW165339   6.105   4.315   9.543
20164SOL    HW265340   6.008   4.268   9.649
20165SOL     OW65341   6.907   4.653   9.594
20165SOL    HW165342   6.897   4.707   9.672
20165SOL    HW265343   6.892   4.563   9.624
20166SOL     OW65344   7.338   3.927   9.772
20166SOL    HW165345   7.404   3.911   9.705
20166SOL    HW265346   7.328   3.843   9.816
20167SOL     OW65347   6.957   5.298   9.747
20167SOL    HW165348   7.044   5.316   9.712
20167SOL    HW265349   6.931   5.381   9.788
20168SOL     OW65350   6.350   5.336   9.412
20168SOL    HW165351   6.324   5.359   9.322
20168SOL    HW265352   6.272   5.356   9.465
20169SOL     OW65353   6.810   5.298   9.338
20169SOL    HW165354   6.797   5.209   9.369
20169SOL    HW265355   6.752   5.306   9.262
20170SOL     OW65356   6.517   4.633   9.629
20170SOL    HW165357   6.564   4.645   9.546
20170SOL    HW265358   6.563   4.561   9.672
20171SOL     OW65359   7.086   5.325   9.322
20171SOL    HW165360   6.991   5.317   9.313
20171SOL    HW265361   7.116   5.349   9.234
20172SOL     OW65362   6.166   5.161   9.701
20172SOL    HW165363   6.245   5.115   9.673
20172SOL    HW265364   6.182   5.253   9.677
20173SOL     OW65365   5.706   4.018   9.346
20173SOL    HW165366   5.679   3.929   9.371
20173SOL    HW265367   5.665   4.075   9.411
20174SOL     OW65368   5.674   3.843   9.642
20174SOL    HW165369   5.756   3.859   9.596
20174SOL    HW265370   5.691   3.768   9.698
20175SOL     OW65371   6.751   5.040   9.412
20175SOL    HW165372   6.655   5.038   9.410
20175SOL    HW265373   6.773   5.036   9.505
20176SOL     OW65374   6.832   4.058   9.750
20176SOL    HW165375   6.894   3.992   9.717
20176SOL    HW265376   6.867   4.082   9.835
20177SOL     OW65377   6.156   4.543   9.842
20177SOL    HW165378   6.164   4.569   9.933
20177SOL    HW265379   6.095   4.470   9.842
20178SOL     OW65380   6.471   5.086   9.401
20178SOL    HW165381   6.444   5.056   9.488
20178SOL    HW265382   6.438   5.176   9.396
20179SOL     OW65383   6.655   4.664   9.392
20179SOL    HW165384   6.721   4.723   9.430
20179SOL    HW265385   6.707   4.599   9.344
20180SOL     OW65386   5.982   4.060   9.938
20180SOL    HW165387   6.056   4.006   9.909
20180SOL    HW265388   6.013   4.104   0.016
20181SOL     OW65389   6.389   5.011   9.648
20181SOL    HW165390   6.358   4.925   9.676
20181SOL    HW265391   6.458   5.033   9.710
20182SOL     OW65392   6.909   3.799   9.362
20182SOL    HW165393   6.976   3.734   9.381
20182SOL    HW265394   6.833   3.770   9.414
20183SOL     OW65395   6.506   5.400   9.639
20183SOL    HW165396   6.453   5.372   9.565
20183SOL    HW265397   6.463   5.479   9.672
20184SOL     OW65398   5.816   6.227   0.136
20184SOL    HW165399   5.749   6.182   0.189
20184SOL    HW265400   5.779   6.228   0.048
20185SOL     OW65401   5.771   5.909   1.031
20185SOL    HW165402   5.818   5.852   1.092
20185SOL    HW265403   5.697   5.856   1.001
20186SOL     OW65404   5.590   5.968   0.635
20186SOL    HW165405   5.504   5.980   0.675
20186SOL    HW265406   5.583   5.885   0.588
20187SOL     OW65407   6.009   6.784   1.128
20187SOL    HW165408   5.967   6.860   1.087
20187SOL    HW265409   6.027   6.812   1.218
20188SOL     OW65410   7.137   7.121   0.721
20188SOL    HW165411   7.113   7.192   0.781
20188SOL    HW265412   7.090   7.141   0.640
20189SOL     OW65413   6.730   6.293   0.669
20189SOL    HW165414   6.786   6.370   0.666
20189SOL    HW265415   6.679   6.303   0.749
20190SOL     OW65416   7.348   6.107   0.188
20190SOL    HW165417   7.367   6.183   0.243
20190SOL    HW265418   7.273   6.064   0.230
20191SOL     OW65419   6.309   6.776   1.128
20191SOL    HW165420   6.226   6.819   1.111
20191SOL    HW265421   6.373   6.827   1.078
20192SOL     OW65422   6.464   6.338   1.818
20192SOL    HW165423   6.513   6.406   1.864
20192SOL    HW265424   6.467   6.364   1.726
20193SOL     OW65425   6.201   6.516   0.693
20193SOL    HW165426   6.287   6.518   0.734
20193SOL    HW265427   6.157   6.595   0.725
20194SOL     OW65428   6.321   6.766   1.834
20194SOL    HW165429   6.370   6.832   1.883
20194SOL    HW265430   6.275   6.816   1.767
20195SOL     OW65431   5.896   7.023   1.042
20195SOL    HW165432   5.824   7.053   0.986
20195SOL    HW265433   5.972   7.074   1.013
20196SOL     OW65434   7.047   7.082   1.365
20196SOL    HW165435   7.098   7.163   1.356
20196SOL    HW265436   6.991   7.097   1.441
20197SOL     OW65437   6.009   5.965   1.626
20197SOL    HW165438   6.096   5.937   1.599
20197SOL    HW265439   5.949   5.919   1.566
20198SOL     OW65440   7.146   5.976   0.702
20198SOL    HW165441   7.051   5.981   0.693
20198SOL    HW265442   7.179   6.050   0.651
20199SOL     OW65443   5.792   7.257   0.450
20199SOL    HW165444   5.729   7.319   0.487
20199SOL    HW265445   5.870   7.310   0.433
20200SOL     OW65446   6.740   6.914   1.713
20200SOL    HW165447   6.772   6.901   1.802
20200SOL    HW265448   6.694   6.833   1.691
20201SOL     OW65449   5.758   7.035   0.599
20201SOL    HW165450   5.775   7.110   0.542
20201SOL    HW265451   5.728   7.073   0.681
20202SOL     OW65452   5.807   6.658   0.909
20202SOL    HW165453   5.736   6.602   0.878
20202SOL    HW265454   5.766   6.717   0.972
20203SOL     OW65455   6.170   7.377   1.438
20203SOL    HW165456   6.080   7.381   1.470
20203SOL    HW265457   6.207   7.463   1.457
20204SOL     OW65458   6.234   6.515   0.078
20204SOL    HW165459   6.155   6.569   0.072
20204SOL    HW265460   6.306   6.578   0.078
20205SOL     OW65461   5.717   6.219   0.612
20205SOL    HW165462   5.689   6.128   0.609
20205SOL    HW265463   5.706   6.245   0.704
20206SOL     OW65464   7.444   7.348   0.309
20206SOL    HW165465   7.525   7.327   0.356
20206SOL    HW265466   7.442   7.444   0.306
20207SOL     OW65467   5.629   7.199   0.068
20207SOL    HW165468   5.631   7.131   0.136
20207SOL    HW265469   5.637   7.281   0.116
20208SOL     OW65470   7.202   6.701   0.438
20208SOL    HW165471   7.276   6.716   0.380
20208SOL    HW265472   7.234   6.637   0.502
20209SOL     OW65473   5.689   6.343   1.592
20209SOL    HW165474   5.733   6.414   1.638
20209SOL    HW265475   5.613   6.384   1.550
20210SOL     OW65476   6.172   6.956   0.784
20210SOL    HW165477   6.124   6.874   0.771
20210SOL    HW265478   6.174   6.996   0.697
20211SOL     OW65479   6.888   6.793   1.427
20211SOL    HW165480   6.950   6.764   1.359
20211SOL    HW265481   6.939   6.789   1.508
20212SOL     OW65482   7.023   6.629   0.234
20212SOL    HW165483   6.968   6.565   0.280
20212SOL    HW265484   7.089   6.654   0.299
20213SOL     OW65485   6.750   7.377   1.634
20213SOL    HW165486   6.760   7.454   1.578
20213SOL    HW265487   6.776   7.303   1.580
20214SOL     OW65488   5.915   5.821   1.846
20214SOL    HW165489   5.953   5.874   1.776
20214SOL    HW265490   5.828   5.860   1.861
20215SOL     OW65491   7.077   6.964   1.010
20215SOL    HW165492   6.991   6.994   1.039
20215SOL    HW265493   7.058   6.900   0.941
20216SOL     OW65494   7.400   7.201   0.714
20216SOL    HW165495   7.384   7.295   0.722
20216SOL    HW265496   7.313   7.161   0.710
20217SOL     OW65497   6.206   6.349   0.299
20217SOL    HW165498   6.234   6.403   0.226
20217SOL    HW265499   6.160   6.276   0.258
20218SOL     OW65500   6.871   5.999   0.946
20218SOL    HW165501   6.788   5.952   0.955
20218SOL    HW265502   6.933   5.949   1.000
20219SOL     OW65503   7.168   7.268   0.293
20219SOL    HW165504   7.258   7.296   0.314
20219SOL    HW265505   7.174   7.231   0.206
20220SOL     OW65506   6.307   6.201   1.432
20220SOL    HW165507   6.400   6.210   1.449
20220SOL    HW265508   6.299   6.125   1.375
20221SOL     OW65509   6.955   6.069   1.657
20221SOL    HW165510   6.972   6.113   1.740
20221SOL    HW265511   7.010   5.991   1.659
20222SOL     OW65512   6.508   6.436   1.559
20222SOL    HW165513   6.554   6.368   1.510
20222SOL    HW265514   6.472   6.493   1.491
20223SOL     OW65515   6.573   5.999   1.220
20223SOL    HW165516   6.479   5.987   1.234
20223SOL    HW265517   6.587   5.971   1.130
20224SOL     OW65518   6.642   6.275   0.408
20224SOL    HW165519   6.671   6.274   0.499
20224SOL    HW265520   6.558   6.230   0.408
20225SOL     OW65521   5.695   6.306   0.877
20225SOL    HW165522   5.784   6.340   0.883
20225SOL    HW265523   5.640   6.384   0.875
20226SOL     OW65524   6.409   5.983   0.186
20226SOL    HW165525   6.371   5.984   0.098
20226SOL    HW265526   6.434   5.892   0.201
20227SOL     OW65527   7.299   6.151   1.840
20227SOL    HW165528   7.254   6.223   1.796
20227SOL    HW265529   7.391   6.163   1.817
20228SOL     OW65530   6.947   6.743   0.549
20228SOL    HW165531   7.032   6.733   0.507
20228SOL    HW265532   6.900   6.806   0.494
20229SOL     OW65533   6.090   5.762   0.857
20229SOL    HW165534   6.114   5.701   0.927
20229SOL    HW265535   6.174   5.790   0.820
20230SOL     OW65536   5.946   7.423   0.887
20230SOL    HW165537   6.042   7.419   0.888
20230SOL    HW265538   5.925   7.461   0.802
20231SOL     OW65539   6.812   7.115   1.533
20231SOL    HW165540   6.806   7.043   1.595
20231SOL    HW265541   6.765   7.085   1.456
20232SOL     OW65542   5.852   6.485   0.247
20232SOL    HW165543   5.901   6.537   0.183
20232SOL    HW265544   5.866   6.395   0.220
20233SOL     OW65545   7.104   6.364   0.702
20233SOL    HW165546   7.109   6.325   0.790
20233SOL    HW265547   7.170   6.433   0.703
20234SOL     OW65548   6.014   6.831   1.801
20234SOL    HW165549   6.029   6.849   1.708
20234SOL    HW265550   5.918   6.828   1.810
20235SOL     OW65551   5.814   5.838   1.484
20235SOL    HW165552   5.758   5.914   1.470
20235SOL    HW265553   5.755   5.769   1.517
20236SOL     OW65554   7.207   6.905   0.090
20236SOL    HW165555   7.184   6.997   0.076
20236SOL    HW265556   7.135   6.856   0.051
20237SOL     OW65557   6.110   7.300   0.395
20237SOL    HW165558   6.117   7.378   0.450
20237SOL    HW265559   6.187   7.303   0.339
20238SOL     OW65560   6.976   5.694   0.456
20238SOL    HW165561   6.966   5.665   0.365
20238SOL    HW265562   7.070   5.713   0.465
20239SOL     OW65563   5.888   7.359   1.220
20239SOL    HW165564   5.977   7.352   1.187
20239SOL    HW265565   5.833   7.340   1.144
20240SOL     OW65566   6.538   7.288   0.878
20240SOL    HW165567   6.624   7.246   0.869
20240SOL    HW265568   6.482   7.240   0.818
20241SOL     OW65569   5.985   6.306   0.532
20241SOL    HW165570   6.023   6.218   0.533
20241SOL    HW265571   5.892   6.292   0.550
20242SOL     OW65572   7.094   5.842   1.713
20242SOL    HW165573   7.104   5.842   1.808
20242SOL    HW265574   7.078   5.750   1.691
20243SOL     OW65575   6.191   5.720   0.113
20243SOL    HW165576   6.278   5.694   0.146
20243SOL    HW265577   6.197   5.711   0.018
20244SOL     OW65578   6.354   5.879   1.781
20244SOL    HW165579   6.441   5.839   1.781
20244SOL    HW265580   6.305   5.831   1.847
20245SOL     OW65581   6.422   7.078   1.213
20245SOL    HW165582   6.404   7.052   1.123
20245SOL    HW265583   6.513   7.108   1.211
20246SOL     OW65584   6.871   6.185   1.424
20246SOL    HW165585   6.911   6.155   1.506
20246SOL    HW265586   6.914   6.268   1.406
20247SOL     OW65587   6.404   6.972   0.959
20247SOL    HW165588   6.491   6.964   0.920
20247SOL    HW265589   6.345   6.980   0.884
20248SOL     OW65590   6.507   6.059   0.903
20248SOL    HW165591   6.469   6.056   0.815
20248SOL    HW265592   6.552   5.975   0.912
20249SOL     OW65593   6.169   5.741   0.510
20249SOL    HW165594   6.258   5.709   0.521
20249SOL    HW265595   6.176   5.805   0.439
20250SOL     OW65596   6.955   6.779   0.017
20250SOL    HW165597   6.977   6.727   0.095
20250SOL    HW265598   6.898   6.848   0.050
20251SOL     OW65599   6.552   5.859   0.567
20251SOL    HW165600   6.510   5.785   0.521
20251SOL    HW265601   6.629   5.879   0.514
20252SOL     OW65602   6.599   6.213   1.400
20252SOL    HW165603   6.586   6.139   1.341
20252SOL    HW265604   6.693   6.211   1.420
20253SOL     OW65605   6.757   7.152   0.754
20253SOL    HW165606   6.741   7.161   0.660
20253SOL    HW265607   6.841   7.196   0.768
20254SOL     OW65608   6.019   6.720   0.736
20254SOL    HW165609   5.938   6.710   0.787
20254SOL    HW265610   5.992   6.703   0.645
20255SOL     OW65611   6.889   7.484   0.530
20255SOL    HW165612   6.982   7.477   0.553
20255SOL    HW265613   6.844   7.494   0.614
20256SOL     OW65614   6.624   6.159   9.964
20256SOL    HW165615   6.588   6.238   0.004
20256SOL    HW265616   6.669   6.114   0.036
20257SOL     OW65617   5.738   6.108   1.438
20257SOL    HW165618   5.810   6.124   1.378
20257SOL    HW265619   5.722   6.192   1.480
20258SOL     OW65620   6.156   5.776   1.185
20258SOL    HW165621   6.173   5.695   1.138
20258SOL    HW265622   6.061   5.777   1.199
20259SOL     OW65623   6.382   6.054   0.656
20259SOL    HW165624   6.372   6.105   0.576
20259SOL    HW265625   6.436   5.979   0.629
20260SOL     OW65626   6.623   5.656   0.768
20260SOL    HW165627   6.570   5.698   0.700
20260SOL    HW265628   6.563   5.593   0.809
20261SOL     OW65629   7.057   6.754   0.828
20261SOL    HW165630   6.987   6.739   0.765
20261SOL    HW265631   7.136   6.761   0.774
20262SOL     OW65632   7.043   6.233   0.947
20262SOL    HW165633   6.988   6.155   0.945
20262SOL    HW265634   7.109   6.215   1.014
20263SOL     OW65635   7.404   6.299   0.390
20263SOL    HW165636   7.399   6.382   0.436
20263SOL    HW265637   7.469   6.248   0.438
20264SOL     OW65638   6.041   6.906   0.147
20264SOL    HW165639   6.019   6.930   0.237
20264SOL    HW265640   6.055   6.989   0.102
20265SOL     OW65641   7.252   6.881   0.669
20265SOL    HW165642   7.230   6.862   0.578
20265SOL    HW265643   7.210   6.965   0.687
20266SOL     OW65644   6.969   6.117   0.028
20266SOL    HW165645   6.900   6.121   0.094
20266SOL    HW265646   7.009   6.031   0.040
20267SOL     OW65647   6.129   5.915   0.298
20267SOL    HW165648   6.154   5.851   0.232
20267SOL    HW265649   6.121   5.997   0.250
20268SOL     OW65650   7.320   6.836   1.592
20268SOL    HW165651   7.399   6.799   1.552
20268SOL    HW265652   7.342   6.929   1.605
20269SOL     OW65653   6.683   6.950   1.343
20269SOL    HW165654   6.600   6.919   1.379
20269SOL    HW265655   6.748   6.889   1.376
20270SOL     OW65656   7.228   7.291   1.614
20270SOL    HW165657   7.211   7.284   1.520
20270SOL    HW265658   7.289   7.219   1.633
20271SOL     OW65659   6.664   6.783   1.116
20271SOL    HW165660   6.666   6.854   1.181
20271SOL    HW265661   6.667   6.828   1.032
20272SOL     OW65662   7.231   6.682   1.044
20272SOL    HW165663   7.203   6.740   1.114
20272SOL    HW265664   7.164   6.691   0.977
20273SOL     OW65665   6.478   5.652   1.389
20273SOL    HW165666   6.503   5.639   1.297
20273SOL    HW265667   6.554   5.693   1.429
20274SOL     OW65668   6.567   6.687   1.708
20274SOL    HW165669   6.478   6.709   1.733
20274SOL    HW265670   6.557   6.616   1.644
20275SOL     OW65671   6.286   6.646   0.393
20275SOL    HW165672   6.302   6.740   0.383
20275SOL    HW265673   6.366   6.605   0.360
20276SOL     OW65674   5.973   6.453   1.235
20276SOL    HW165675   6.045   6.466   1.297
20276SOL    HW265676   5.949   6.361   1.246
20277SOL     OW65677   6.830   5.934   1.307
20277SOL    HW165678   6.861   6.018   1.341
20277SOL    HW265679   6.744   5.953   1.271
20278SOL     OW65680   5.676   7.173   1.362
20278SOL    HW165681   5.636   7.230   1.297
20278SOL    HW265682   5.767   7.162   1.332
20279SOL     OW65683   5.947   6.634   0.463
20279SOL    HW165684   5.918   6.722   0.437
20279SOL    HW265685   5.904   6.575   0.401
20280SOL     OW65686   6.150   6.145   0.834
20280SOL    HW165687   6.203   6.121   0.758
20280SOL    HW265688   6.214   6.169   0.901
20281SOL     OW65689   6.828   6.949   0.399
20281SOL    HW165690   6.909   6.997   0.413
20281SOL    HW265691   6.759   7.007   0.432
20282SOL     OW65692   6.864   7.069   1.162
20282SOL    HW165693   6.938   7.073   1.222
20282SOL    HW265694   6.793   7.031   1.213
20283SOL     OW65695   7.191   6.178   0.519
20283SOL    HW165696   7.149   6.245   0.572
20283SOL    HW265697   7.260   6.224   0.472
20284SOL     OW65698   5.929   7.049   1.313
20284SOL    HW165699   5.916   7.045   1.218
20284SOL    HW265700   6.019   7.080   1.324
20285SOL     OW65701   6.032   6.279   1.586
20285SOL    HW165702   6.074   6.355   1.546
20285SOL    HW265703   6.042   6.209   1.521
20286SOL     OW65704   7.198   6.370   1.708
20286SOL    HW165705   7.110   6.406   1.697
20286SOL    HW265706   7.247   6.403   1.633
20287SOL     OW65707   6.588   5.734   1.823
20287SOL    HW165708   6.644   5.801   1.784
20287SOL    HW265709   6.623   5.651   1.789
20288SOL     OW65710   6.052   5.585   1.813
20288SOL    HW165711   6.029   5.534   1.736
20288SOL    HW265712   6.002   5.666   1.805
20289SOL     OW65713   6.226   6.545   1.017
20289SOL    HW165714   6.292   6.525   0.951
20289SOL    HW265715   6.263   6.617   1.068
20290SOL     OW65716   6.899   6.467   0.969
20290SOL    HW165717   6.897   6.501   0.880
20290SOL    HW265718   6.950   6.386   0.963
20291SOL     OW65719   6.765   6.100   0.219
20291SOL    HW165720   6.781   6.024   0.276
20291SOL    HW265721   6.725   6.165   0.276
20292SOL     OW65722   5.881   5.753   1.229
20292SOL    HW165723   5.868   5.779   1.320
20292SOL    HW265724   5.853   5.661   1.227
20293SOL     OW65725   5.596   6.913   1.312
20293SOL    HW165726   5.647   6.862   1.375
20293SOL    HW265727   5.622   7.004   1.328
20294SOL     OW65728   6.323   6.200   1.046
20294SOL    HW165729   6.395   6.157   1.000
20294SOL    HW265730   6.358   6.285   1.072
20295SOL     OW65731   7.344   6.533   1.882
20295SOL    HW165732   7.289   6.476   1.828
20295SOL    HW265733   7.284   6.567   1.949
20296SOL     OW65734   7.159   5.967   0.341
20296SOL    HW165735   7.196   5.894   0.390
20296SOL    HW265736   7.153   6.038   0.405
20297SOL     OW65737   6.592   6.320   0.908
20297SOL    HW165738   6.608   6.345   0.999
20297SOL    HW265739   6.578   6.225   0.912
20298SOL     OW65740   6.510   7.074   1.699
20298SOL    HW165741   6.508   7.152   1.643
20298SOL    HW265742   6.600   7.041   1.692
20299SOL     OW65743   7.429   7.093   1.614
20299SOL    HW165744   7.470   7.125   1.534
20299SOL    HW265745   7.501   7.090   1.678
20300SOL     OW65746   5.985   6.429   1.863
20300SOL    HW165747   6.050   6.488   1.902
20300SOL    HW265748   5.932   6.486   1.807
20301SOL     OW65749   7.042   5.863   0.112
20301SOL    HW165750   7.003   5.780   0.140
20301SOL    HW265751   7.085   5.898   0.190
20302SOL     OW65752   6.903   6.394   0.054
20302SOL    HW165753   6.932   6.307   0.025
20302SOL    HW265754   6.981   6.449   0.043
20303SOL     OW65755   6.660   6.921   0.875
20303SOL    HW165756   6.667   6.849   0.812
20303SOL    HW265757   6.700   6.996   0.831
20304SOL     OW65758   5.965   6.375   0.906
20304SOL    HW165759   6.024   6.362   0.832
20304SOL    HW265760   5.963   6.291   0.951
20305SOL     OW65761   5.946   6.119   1.014
20305SOL    HW165762   5.888   6.044   1.004
20305SOL    HW265763   6.013   6.107   0.947
20306SOL     OW65764   6.710   5.950   1.700
20306SOL    HW165765   6.669   6.010   1.762
20306SOL    HW265766   6.793   5.990   1.677
20307SOL     OW65767   6.710   5.764   1.493
20307SOL    HW165768   6.705   5.831   1.562
20307SOL    HW265769   6.762   5.805   1.424
20308SOL     OW65770   5.594   6.897   0.179
20308SOL    HW165771   5.511   6.921   0.136
20308SOL    HW265772   5.572   6.819   0.230
20309SOL     OW65773   5.734   7.301   0.996
20309SOL    HW165774   5.693   7.250   0.926
20309SOL    HW265775   5.803   7.351   0.953
20310SOL     OW65776   6.120   7.157   0.973
20310SOL    HW165777   6.160   7.241   0.952
20310SOL    HW265778   6.152   7.098   0.905
20311SOL     OW65779   6.582   6.383   1.177
20311SOL    HW165780   6.652   6.448   1.185
20311SOL    HW265781   6.588   6.331   1.256
20312SOL     OW65782   5.621   6.136   1.085
20312SOL    HW165783   5.675   6.058   1.071
20312SOL    HW265784   5.645   6.194   1.014
20313SOL     OW65785   5.814   6.136   1.747
20313SOL    HW165786   5.854   6.084   1.677
20313SOL    HW265787   5.764   6.203   1.701
20314SOL     OW65788   6.965   6.505   1.646
20314SOL    HW165789   6.994   6.596   1.647
20314SOL    HW265790   6.960   6.482   1.554
20315SOL     OW65791   6.392   6.162   0.397
20315SOL    HW165792   6.397   6.095   0.329
20315SOL    HW265793   6.330   6.226   0.364
20316SOL     OW65794   7.235   6.194   1.143
20316SOL    HW165795   7.225   6.144   1.224
20316SOL    HW265796   7.324   6.177   1.115
20317SOL     OW65797   5.812   7.102   1.716
20317SOL    HW165798   5.801   7.188   1.758
20317SOL    HW265799   5.905   7.098   1.695
20318SOL     OW65800   6.294   6.004   1.242
20318SOL    HW165801   6.248   5.923   1.220
20318SOL    HW265802   6.285   6.059   1.163
20319SOL     OW65803   6.455   7.272   1.511
20319SOL    HW165804   6.425   7.236   1.428
20319SOL    HW265805   6.482   7.361   1.490
20320SOL     OW65806   6.081   6.149   0.162
20320SOL    HW165807   6.119   6.172   0.077
20320SOL    HW265808   5.987   6.165   0.150
20321SOL     OW65809   5.728   6.715   1.482
20321SOL    HW165810   5.738   6.662   1.561
20321SOL    HW265811   5.751   6.655   1.411
20322SOL     OW65812   6.795   6.558   1.200
20322SOL    HW165813   6.839   6.531   1.119
20322SOL    HW265814   6.754   6.641   1.178
20323SOL     OW65815   6.862   6.428   0.327
20323SOL    HW165816   6.789   6.375   0.360
20323SOL    HW265817   6.870   6.403   0.235
20324SOL     OW65818   7.299   7.325   1.094
20324SOL    HW165819   7.370   7.363   1.042
20324SOL    HW265820   7.310   7.231   1.085
20325SOL     OW65821   6.845   7.320   1.037
20325SOL    HW165822   6.926   7.339   0.989
20325SOL    HW265823   6.858   7.232   1.072
20326SOL     OW65824   5.636   6.765   1.087
20326SOL    HW165825   5.627   6.824   1.162
20326SOL    HW265826   5.547   6.732   1.072
20327SOL     OW65827   6.247   7.265   1.724
20327SOL    HW165828   6.182   7.334   1.711
20327SOL    HW265829   6.312   7.279   1.655
20328SOL     OW65830   6.457   5.707   0.214
20328SOL    HW165831   6.518   5.642   0.179
20328SOL    HW265832   6.445   5.681   0.305
20329SOL     OW65833   7.261   5.738   0.458
20329SOL    HW165834   7.344   5.734   0.410
20329SOL    HW265835   7.267   5.667   0.522
20330SOL     OW65836   7.006   7.150   0.484
20330SOL    HW165837   7.058   7.202   0.423
20330SOL    HW265838   6.918   7.189   0.481
20331SOL     OW65839   5.762   7.336   1.838
20331SOL    HW165840   5.709   7.288   1.901
20331SOL    HW265841   5.803   7.406   1.890
20332SOL     OW65842   6.883   6.521   0.689
20332SOL    HW165843   6.961   6.465   0.685
20332SOL    HW265844   6.903   6.593   0.629
20333SOL     OW65845   6.423   6.876   1.416
20333SOL    HW165846   6.365   6.900   1.488
20333SOL    HW265847   6.398   6.934   1.345
20334SOL     OW65848   6.124   7.137   0.023
20334SOL    HW165849   6.075   7.216   0.048
20334SOL    HW265850   6.207   7.145   0.069
20335SOL     OW65851   7.180   7.326   1.344
20335SOL    HW165852   7.221   7.324   1.258
20335SOL    HW265853   7.169   7.420   1.363
20336SOL     OW65854   7.487   5.754   0.989
20336SOL    HW165855   7.490   5.662   0.962
20336SOL    HW265856   7.402   5.785   0.957
20337SOL     OW65857   5.840   5.715   0.736
20337SOL    HW165858   5.789   5.786   0.698
20337SOL    HW265859   5.912   5.759   0.782
20338SOL     OW65860   6.842   7.249   0.105
20338SOL    HW165861   6.819   7.156   0.095
20338SOL    HW265862   6.832   7.285   0.017
20339SOL     OW65863   6.406   6.604   1.366
20339SOL    HW165864   6.428   6.600   1.272
20339SOL    HW265865   6.411   6.698   1.387
20340SOL     OW65866   6.507   6.509   0.297
20340SOL    HW165867   6.559   6.529   0.218
20340SOL    HW265868   6.554   6.438   0.339
20341SOL     OW65869   7.101   7.158   0.037
20341SOL    HW165870   7.022   7.196   0.077
20341SOL    HW265871   7.082   7.154   9.944
20342SOL     OW65872   5.944   6.889   1.537
20342SOL    HW165873   5.946   6.952   1.465
20342SOL    HW265874   5.867   6.835   1.519
20343SOL     OW65875   7.159   6.832   1.285
20343SOL    HW165876   7.251   6.851   1.305
20343SOL    HW265877   7.113   6.913   1.306
20344SOL     OW65878   6.650   6.681   0.721
20344SOL    HW165879   6.644   6.703   0.628
20344SOL    HW265880   6.727   6.624   0.727
20345SOL     OW65881   6.645   5.831   0.981
20345SOL    HW165882   6.651   5.781   0.899
20345SOL    HW265883   6.633   5.765   1.049
20346SOL     OW65884   6.183   7.070   0.534
20346SOL    HW165885   6.236   7.025   0.468
20346SOL    HW265886   6.146   7.145   0.488
20347SOL     OW65887   7.389   5.997   1.338
20347SOL    HW165888   7.438   6.070   1.375
20347SOL    HW265889   7.408   6.000   1.245
20348SOL     OW65890   5.803   6.860   0.384
20348SOL    HW165891   5.761   6.902   0.308
20348SOL    HW265892   5.796   6.925   0.454
20349SOL     OW65893   5.729   6.590   1.738
20349SOL    HW165894   5.653   6.562   1.789
20349SOL    HW265895   5.743   6.681   1.764
20350SOL     OW65896   6.235   5.840   1.531
20350SOL    HW165897   6.293   5.815   1.459
20350SOL    HW265898   6.294   5.850   1.606
20351SOL     OW65899   5.577   5.848   0.017
20351SOL    HW165900   5.508   5.902   0.056
20351SOL    HW265901   5.629   5.909   9.965
20352SOL     OW65902   6.971   6.439   1.378
20352SOL    HW165903   6.909   6.486   1.322
20352SOL    HW265904   7.056   6.452   1.334
20353SOL     OW65905   5.670   5.699   0.243
20353SOL    HW165906   5.636   5.751   0.170
20353SOL    HW265907   5.763   5.690   0.224
20354SOL     OW65908   6.769   6.969   0.119
20354SOL    HW165909   6.676   6.956   0.098
20354SOL    HW265910   6.775   6.951   0.213
20355SOL     OW65911   6.182   6.446   1.418
20355SOL    HW165912   6.249   6.512   1.404
20355SOL    HW265913   6.230   6.363   1.419
20356SOL     OW65914   7.092   7.339   0.892
20356SOL    HW165915   7.137   7.391   0.825
20356SOL    HW265916   7.152   7.341   0.967
20357SOL     OW65917   6.259   6.143   1.809
20357SOL    HW165918   6.333   6.204   1.805
20357SOL    HW265919   6.298   6.057   1.791
20358SOL     OW65920   7.060   6.764   1.644
20358SOL    HW165921   7.056   6.794   1.736
20358SOL    HW265922   7.149   6.786   1.617
20359SOL     OW65923   5.900   7.343   1.501
20359SOL    HW165924   5.891   7.354   1.406
20359SOL    HW265925   5.825   7.288   1.526
20360SOL     OW65926   7.208   6.465   1.231
20360SOL    HW165927   7.220   6.382   1.185
20360SOL    HW265928   7.222   6.532   1.164
20361SOL     OW65929   6.802   5.917   0.443
20361SOL    HW165930   6.860   5.841   0.442
20361SOL    HW265931   6.830   5.968   0.518
20362SOL     OW65932   7.380   5.915   1.658
20362SOL    HW165933   7.440   5.986   1.678
20362SOL    HW265934   7.296   5.944   1.694
20363SOL     OW65935   7.298   6.502   1.493
20363SOL    HW165936   7.325   6.593   1.497
20363SOL    HW265937   7.277   6.488   1.400
20364SOL     OW65938   6.494   6.966   0.023
20364SOL    HW165939   6.424   6.906   9.995
20364SOL    HW265940   6.449   7.032   0.075
20365SOL     OW65941   6.227   7.416   0.909
20365SOL    HW165942   6.225   7.511   0.910
20365SOL    HW265943   6.318   7.394   0.886
20366SOL     OW65944   6.436   6.533   0.835
20366SOL    HW165945   6.491   6.457   0.856
20366SOL    HW265946   6.497   6.600   0.806
20367SOL     OW65947   6.666   6.538   0.071
20367SOL    HW165948   6.685   6.619   0.024
20367SOL    HW265949   6.745   6.485   0.062
20368SOL     OW65950   7.518   7.010   0.885
20368SOL    HW165951   7.503   7.075   0.817
20368SOL    HW265952   7.453   7.032   0.953
20369SOL     OW65953   5.740   6.855   1.815
20369SOL    HW165954   5.757   6.940   1.776
20369SOL    HW265955   5.687   6.874   1.892
20370SOL     OW65956   5.605   6.820   0.676
20370SOL    HW165957   5.671   6.769   0.723
20370SOL    HW265958   5.653   6.894   0.640
20371SOL     OW65959   6.268   6.961   1.634
20371SOL    HW165960   6.210   7.028   1.596
20371SOL    HW265961   6.344   7.010   1.664
20372SOL     OW65962   7.461   5.695   1.263
20372SOL    HW165963   7.522   5.621   1.263
20372SOL    HW265964   7.462   5.727   1.172
20373SOL     OW65965   6.059   6.039   0.536
20373SOL    HW165966   6.079   6.002   0.450
20373SOL    HW265967   6.072   5.966   0.596
20374SOL     OW65968   7.325   7.052   1.076
20374SOL    HW165969   7.238   7.022   1.052
20374SOL    HW265970   7.348   7.001   1.153
20375SOL     OW65971   5.968   6.165   1.283
20375SOL    HW165972   6.056   6.129   1.295
20375SOL    HW265973   5.949   6.150   1.191
20376SOL     OW65974   6.405   7.152   0.685
20376SOL    HW165975   6.467   7.139   0.614
20376SOL    HW265976   6.319   7.137   0.645
20377SOL     OW65977   7.018   5.843   1.117
20377SOL    HW165978   7.029   5.748   1.119
20377SOL    HW265979   6.963   5.862   1.192
20378SOL     OW65980   6.606   5.603   1.137
20378SOL    HW165981   6.550   5.558   1.073
20378SOL    HW265982   6.691   5.559   1.130
20379SOL     OW65983   6.355   6.947   0.353
20379SOL    HW165984   6.342   7.002   0.276
20379SOL    HW265985   6.429   6.988   0.398
20380SOL     OW65986   6.189   7.119   1.355
20380SOL    HW165987   6.189   7.211   1.381
20380SOL    HW265988   6.263   7.111   1.294
20381SOL     OW65989   6.929   5.607   0.196
20381SOL    HW165990   6.978   5.531   0.166
20381SOL    HW265991   6.837   5.581   0.192
20382SOL     OW65992   6.873   6.051   0.675
20382SOL    HW165993   6.832   6.137   0.663
20382SOL    HW265994   6.868   6.035   0.769
20383SOL     OW65995   7.223   5.815   0.922
20383SOL    HW165996   7.160   5.849   0.985
20383SOL    HW265997   7.207   5.864   0.842
20384SOL     OW65998   5.600   6.666   0.346
20384SOL    HW165999   5.677   6.718   0.373
20384SOL    HW266000   5.629   6.575   0.354
20385SOL     OW66001   5.811   5.879   2.838
20385SOL    HW166002   5.851   5.836   2.913
20385SOL    HW266003   5.719   5.853   2.842
20386SOL     OW66004   5.582   5.989   2.516
20386SOL    HW166005   5.499   6.009   2.560
20386SOL    HW266006   5.561   5.918   2.456
20387SOL     OW66007   6.106   6.885   3.094
20387SOL    HW166008   6.054   6.918   3.021
20387SOL    HW266009   6.151   6.962   3.129
20388SOL     OW66010   7.148   7.062   2.545
20388SOL    HW166011   7.097   7.061   2.626
20388SOL    HW266012   7.084   7.082   2.477
20389SOL     OW66013   6.711   6.292   2.527
20389SOL    HW166014   6.761   6.372   2.513
20389SOL    HW266015   6.662   6.307   2.607
20390SOL     OW66016   7.379   6.098   2.099
20390SOL    HW166017   7.332   6.103   2.016
20390SOL    HW266018   7.463   6.142   2.082
20391SOL     OW66019   6.292   6.717   2.970
20391SOL    HW166020   6.230   6.767   3.024
20391SOL    HW266021   6.336   6.784   2.917
20392SOL     OW66022   6.435   6.428   3.679
20392SOL    HW166023   6.510   6.379   3.714
20392SOL    HW266024   6.455   6.437   3.586
20393SOL     OW66025   6.308   6.641   2.537
20393SOL    HW166026   6.402   6.653   2.550
20393SOL    HW266027   6.271   6.729   2.542
20394SOL     OW66028   6.248   6.767   3.676
20394SOL    HW166029   6.271   6.849   3.631
20394SOL    HW266030   6.160   6.747   3.644
20395SOL     OW66031   5.944   7.021   2.916
20395SOL    HW166032   5.879   6.981   2.858
20395SOL    HW266033   5.991   7.083   2.859
20396SOL     OW66034   6.994   7.116   3.226
20396SOL    HW166035   7.047   7.195   3.231
20396SOL    HW266036   7.057   7.045   3.218
20397SOL     OW66037   5.989   5.922   3.486
20397SOL    HW166038   6.077   5.901   3.454
20397SOL    HW266039   5.930   5.886   3.419
20398SOL     OW66040   7.188   6.066   2.607
20398SOL    HW166041   7.176   6.109   2.522
20398SOL    HW266042   7.280   6.041   2.609
20399SOL     OW66043   5.851   7.304   2.304
20399SOL    HW166044   5.871   7.376   2.363
20399SOL    HW266045   5.928   7.297   2.247
20400SOL     OW66046   6.784   6.887   3.527
20400SOL    HW166047   6.854   6.866   3.588
20400SOL    HW266048   6.817   6.859   3.442
20401SOL     OW66049   5.760   7.072   2.423
20401SOL    HW166050   5.794   7.153   2.384
20401SOL    HW266051   5.725   7.099   2.508
20402SOL     OW66052   5.845   6.633   2.757
20402SOL    HW166053   5.925   6.620   2.808
20402SOL    HW266054   5.802   6.707   2.800
20403SOL     OW66055   6.167   7.391   3.271
20403SOL    HW166056   6.089   7.385   3.327
20403SOL    HW266057   6.197   7.481   3.282
20404SOL     OW66058   6.146   6.610   1.998
20404SOL    HW166059   6.193   6.667   1.937
20404SOL    HW266060   6.197   6.613   2.079
20405SOL     OW66061   7.134   5.774   3.314
20405SOL    HW166062   7.197   5.844   3.296
20405SOL    HW266063   7.125   5.775   3.409
20406SOL     OW66064   5.708   6.236   2.450
20406SOL    HW166065   5.671   6.153   2.480
20406SOL    HW266066   5.714   6.289   2.530
20407SOL     OW66067   7.463   7.399   2.238
20407SOL    HW166068   7.537   7.362   2.286
20407SOL    HW266069   7.503   7.442   2.162
20408SOL     OW66070   5.634   7.170   2.015
20408SOL    HW166071   5.615   7.077   2.026
20408SOL    HW266072   5.595   7.212   2.092
20409SOL     OW66073   7.264   6.415   2.483
20409SOL    HW166074   7.342   6.422   2.537
20409SOL    HW266075   7.264   6.493   2.428
20410SOL     OW66076   7.254   6.667   2.333
20410SOL    HW166077   7.335   6.665   2.282
20410SOL    HW266078   7.272   6.730   2.402
20411SOL     OW66079   5.781   6.301   3.463
20411SOL    HW166080   5.875   6.322   3.463
20411SOL    HW266081   5.739   6.380   3.498
20412SOL     OW66082   6.193   6.978   2.614
20412SOL    HW166083   6.130   6.907   2.604
20412SOL    HW266084   6.200   7.016   2.526
20413SOL     OW66085   6.877   6.791   3.287
20413SOL    HW166086   6.890   6.739   3.208
20413SOL    HW266087   6.963   6.790   3.331
20414SOL     OW66088   6.417   5.592   2.375
20414SOL    HW166089   6.467   5.670   2.350
20414SOL    HW266090   6.325   5.617   2.363
20415SOL     OW66091   5.749   6.527   3.089
20415SOL    HW166092   5.839   6.495   3.095
20415SOL    HW266093   5.732   6.534   2.996
20416SOL     OW66094   7.136   6.612   2.077
20416SOL    HW166095   7.066   6.552   2.099
20416SOL    HW266096   7.181   6.629   2.160
20417SOL     OW66097   6.697   7.426   3.440
20417SOL    HW166098   6.739   7.498   3.393
20417SOL    HW266099   6.757   7.352   3.429
20418SOL     OW66100   5.995   5.861   3.754
20418SOL    HW166101   5.993   5.892   3.664
20418SOL    HW266102   6.020   5.938   3.806
20419SOL     OW66103   7.042   7.006   2.801
20419SOL    HW166104   7.126   7.014   2.846
20419SOL    HW266105   7.042   6.918   2.764
20420SOL     OW66106   7.194   7.332   2.482
20420SOL    HW166107   7.207   7.307   2.390
20420SOL    HW266108   7.216   7.254   2.532
20421SOL     OW66109   6.263   6.305   2.087
20421SOL    HW166110   6.320   6.333   2.015
20421SOL    HW266111   6.251   6.384   2.140
20422SOL     OW66112   6.858   5.864   2.764
20422SOL    HW166113   6.831   5.922   2.692
20422SOL    HW266114   6.950   5.884   2.777
20423SOL     OW66115   7.230   7.232   2.226
20423SOL    HW166116   7.308   7.285   2.209
20423SOL    HW266117   7.233   7.162   2.161
20424SOL     OW66118   6.312   6.195   3.315
20424SOL    HW166119   6.291   6.162   3.402
20424SOL    HW266120   6.279   6.128   3.255
20425SOL     OW66121   7.024   6.045   3.498
20425SOL    HW166122   7.085   6.117   3.511
20425SOL    HW266123   7.073   5.967   3.523
20426SOL     OW66124   6.514   6.466   3.421
20426SOL    HW166125   6.558   6.389   3.384
20426SOL    HW266126   6.475   6.510   3.345
20427SOL     OW66127   6.545   5.937   3.070
20427SOL    HW166128   6.636   5.961   3.090
20427SOL    HW266129   6.549   5.901   2.982
20428SOL     OW66130   6.652   6.264   2.262
20428SOL    HW166131   6.672   6.271   2.355
20428SOL    HW266132   6.571   6.212   2.258
20429SOL     OW66133   5.707   6.403   2.672
20429SOL    HW166134   5.767   6.476   2.685
20429SOL    HW266135   5.624   6.433   2.709
20430SOL     OW66136   5.699   7.465   3.395
20430SOL    HW166137   5.676   7.443   3.486
20430SOL    HW266138   5.696   7.560   3.392
20431SOL     OW66139   6.517   5.906   2.052
20431SOL    HW166140   6.550   5.980   2.002
20431SOL    HW266141   6.536   5.829   1.997
20432SOL     OW66142   7.243   6.165   3.710
20432SOL    HW166143   7.228   6.232   3.643
20432SOL    HW266144   7.299   6.100   3.667
20433SOL     OW66145   6.978   6.738   2.401
20433SOL    HW166146   7.060   6.719   2.355
20433SOL    HW266147   6.933   6.802   2.345
20434SOL     OW66148   6.166   5.696   2.772
20434SOL    HW166149   6.174   5.736   2.858
20434SOL    HW266150   6.212   5.756   2.713
20435SOL     OW66151   6.591   7.054   2.320
20435SOL    HW166152   6.567   7.117   2.253
20435SOL    HW266153   6.572   7.098   2.403
20436SOL     OW66154   7.388   6.666   2.741
20436SOL    HW166155   7.358   6.721   2.669
20436SOL    HW266156   7.449   6.721   2.790
20437SOL     OW66157   6.796   7.161   3.410
20437SOL    HW166158   6.814   7.084   3.465
20437SOL    HW266159   6.860   7.156   3.340
20438SOL     OW66160   5.884   6.577   2.102
20438SOL    HW166161   5.965   6.615   2.070
20438SOL    HW266162   5.877   6.493   2.055
20439SOL     OW66163   7.022   6.366   2.609
20439SOL    HW166164   7.046   6.331   2.695
20439SOL    HW266165   7.106   6.385   2.567
20440SOL     OW66166   5.977   6.777   3.562
20440SOL    HW166167   5.961   6.806   3.473
20440SOL    HW266168   5.927   6.837   3.617
20441SOL     OW66169   6.725   7.304   2.094
20441SOL    HW166170   6.633   7.288   2.113
20441SOL    HW266171   6.740   7.261   2.009
20442SOL     OW66172   5.795   5.814   3.321
20442SOL    HW166173   5.743   5.895   3.321
20442SOL    HW266174   5.739   5.749   3.364
20443SOL     OW66175   7.206   7.015   2.040
20443SOL    HW166176   7.254   7.072   1.980
20443SOL    HW266177   7.149   6.963   1.984
20444SOL     OW66178   6.106   7.314   2.177
20444SOL    HW166179   6.128   7.405   2.156
20444SOL    HW266180   6.147   7.263   2.107
20445SOL     OW66181   7.008   5.705   2.326
20445SOL    HW166182   6.997   5.672   2.237
20445SOL    HW266183   7.102   5.725   2.333
20446SOL     OW66184   5.810   7.389   3.084
20446SOL    HW166185   5.867   7.320   3.118
20446SOL    HW266186   5.793   7.363   2.993
20447SOL     OW66187   6.547   7.287   2.715
20447SOL    HW166188   6.633   7.248   2.731
20447SOL    HW266189   6.514   7.241   2.638
20448SOL     OW66190   5.942   6.237   2.298
20448SOL    HW166191   5.976   6.153   2.329
20448SOL    HW266192   5.858   6.247   2.343
20449SOL     OW66193   7.132   5.799   3.594
20449SOL    HW166194   7.112   5.818   3.686
20449SOL    HW266195   7.212   5.747   3.597
20450SOL     OW66196   6.248   5.693   1.966
20450SOL    HW166197   6.327   5.640   1.957
20450SOL    HW266198   6.183   5.648   1.912
20451SOL     OW66199   6.343   5.903   3.657
20451SOL    HW166200   6.422   5.856   3.632
20451SOL    HW266201   6.356   5.923   3.750
20452SOL     OW66202   6.427   7.042   3.082
20452SOL    HW166203   6.412   7.021   2.990
20452SOL    HW266204   6.517   7.012   3.099
20453SOL     OW66205   6.898   6.182   3.289
20453SOL    HW166206   6.954   6.142   3.355
20453SOL    HW266207   6.937   6.268   3.273
20454SOL     OW66208   6.378   6.940   2.825
20454SOL    HW166209   6.465   6.942   2.784
20454SOL    HW266210   6.318   6.961   2.753
20455SOL     OW66211   6.489   6.081   2.746
20455SOL    HW166212   6.469   6.068   2.653
20455SOL    HW266213   6.526   5.998   2.775
20456SOL     OW66214   6.154   5.656   2.328
20456SOL    HW166215   6.077   5.653   2.385
20456SOL    HW266216   6.139   5.732   2.272
20457SOL     OW66217   7.039   6.821   1.916
20457SOL    HW166218   7.073   6.749   1.968
20457SOL    HW266219   6.948   6.832   1.945
20458SOL     OW66220   5.869   5.629   2.045
20458SOL    HW166221   5.911   5.693   1.987
20458SOL    HW266222   5.938   5.566   2.065
20459SOL     OW66223   6.551   5.823   2.314
20459SOL    HW166224   6.532   5.850   2.224
20459SOL    HW266225   6.642   5.847   2.327
20460SOL     OW66226   6.633   6.239   3.322
20460SOL    HW166227   6.597   6.151   3.334
20460SOL    HW266228   6.727   6.226   3.312
20461SOL     OW66229   6.795   7.153   2.653
20461SOL    HW166230   6.829   7.224   2.598
20461SOL    HW266231   6.866   7.135   2.716
20462SOL     OW66232   6.027   6.758   2.579
20462SOL    HW166233   5.961   6.719   2.636
20462SOL    HW266234   5.994   6.746   2.490
20463SOL     OW66235   6.915   7.367   2.501
20463SOL    HW166236   6.904   7.443   2.444
20463SOL    HW266237   7.009   7.364   2.520
20464SOL     OW66238   6.617   6.114   1.903
20464SOL    HW166239   6.580   6.198   1.876
20464SOL    HW266240   6.694   6.137   1.956
20465SOL     OW66241   5.721   6.088   3.298
20465SOL    HW166242   5.795   6.093   3.237
20465SOL    HW266243   5.730   6.164   3.354
20466SOL     OW66244   6.157   5.776   3.036
20466SOL    HW166245   6.192   5.710   3.097
20466SOL    HW266246   6.062   5.772   3.048
20467SOL     OW66247   6.426   6.013   2.486
20467SOL    HW166248   6.407   6.068   2.410
20467SOL    HW266249   6.468   5.935   2.450
20468SOL     OW66250   6.521   5.643   2.639
20468SOL    HW166251   6.491   5.628   2.550
20468SOL    HW266252   6.541   5.555   2.672
20469SOL     OW66253   7.075   6.768   2.664
20469SOL    HW166254   7.022   6.751   2.586
20469SOL    HW266255   7.163   6.786   2.630
20470SOL     OW66256   7.079   6.210   2.836
20470SOL    HW166257   7.127   6.159   2.771
20470SOL    HW266258   7.136   6.210   2.913
20471SOL     OW66259   7.456   6.375   2.213
20471SOL    HW166260   7.486   6.334   2.294
20471SOL    HW266261   7.509   6.334   2.145
20472SOL     OW66262   6.072   6.986   2.021
20472SOL    HW166263   5.998   6.967   2.079
20472SOL    HW266264   6.060   6.927   1.947
20473SOL     OW66265   7.309   6.844   2.536
20473SOL    HW166266   7.402   6.866   2.539
20473SOL    HW266267   7.265   6.929   2.532
20474SOL     OW66268   6.996   6.154   1.914
20474SOL    HW166269   6.948   6.122   1.990
20474SOL    HW266270   7.086   6.127   1.930
20475SOL     OW66271   6.110   5.862   2.145
20475SOL    HW166272   6.162   5.812   2.083
20475SOL    HW266273   6.087   5.942   2.099
20476SOL     OW66274   7.326   6.861   3.417
20476SOL    HW166275   7.402   6.804   3.402
20476SOL    HW266276   7.364   6.944   3.446
20477SOL     OW66277   6.638   6.888   3.177
20477SOL    HW166278   6.583   6.869   3.253
20477SOL    HW266279   6.727   6.878   3.210
20478SOL     OW66280   7.162   7.212   3.506
20478SOL    HW166281   7.152   7.259   3.422
20478SOL    HW266282   7.249   7.174   3.502
20479SOL     OW66283   6.674   6.765   2.929
20479SOL    HW166284   6.663   6.815   3.010
20479SOL    HW266285   6.671   6.830   2.859
20480SOL     OW66286   7.118   6.700   2.937
20480SOL    HW166287   7.189   6.758   2.965
20480SOL    HW266288   7.121   6.704   2.841
20481SOL     OW66289   6.457   5.784   3.277
20481SOL    HW166290   6.471   5.837   3.198
20481SOL    HW266291   6.545   5.771   3.313
20482SOL     OW66292   6.565   6.710   3.550
20482SOL    HW166293   6.641   6.766   3.531
20482SOL    HW266294   6.572   6.638   3.487
20483SOL     OW66295   6.265   6.544   2.257
20483SOL    HW166296   6.275   6.609   2.328
20483SOL    HW266297   6.354   6.529   2.226
20484SOL     OW66298   6.002   6.416   3.096
20484SOL    HW166299   6.070   6.434   3.160
20484SOL    HW266300   5.985   6.322   3.104
20485SOL     OW66301   6.816   5.968   3.135
20485SOL    HW166302   6.847   6.049   3.175
20485SOL    HW266303   6.893   5.931   3.092
20486SOL     OW66304   5.647   7.153   3.202
20486SOL    HW166305   5.610   7.241   3.187
20486SOL    HW266306   5.741   7.165   3.195
20487SOL     OW66307   5.891   6.716   2.345
20487SOL    HW166308   5.888   6.795   2.292
20487SOL    HW266309   5.894   6.644   2.282
20488SOL     OW66310   6.159   6.244   2.735
20488SOL    HW166311   6.195   6.184   2.670
20488SOL    HW266312   6.214   6.232   2.812
20489SOL     OW66313   6.835   6.934   2.258
20489SOL    HW166314   6.895   7.007   2.275
20489SOL    HW266315   6.749   6.968   2.285
20490SOL     OW66316   6.852   7.055   2.996
20490SOL    HW166317   6.897   7.067   3.080
20490SOL    HW266318   6.921   7.025   2.936
20491SOL     OW66319   7.247   6.173   2.346
20491SOL    HW166320   7.256   6.255   2.395
20491SOL    HW266321   7.260   6.198   2.255
20492SOL     OW66322   5.921   7.138   3.161
20492SOL    HW166323   5.922   7.100   3.073
20492SOL    HW266324   6.013   7.152   3.182
20493SOL     OW66325   6.051   6.347   3.506
20493SOL    HW166326   6.097   6.388   3.433
20493SOL    HW266327   6.111   6.279   3.537
20494SOL     OW66328   7.145   6.310   3.501
20494SOL    HW166329   7.078   6.378   3.513
20494SOL    HW266330   7.219   6.358   3.463
20495SOL     OW66331   6.582   5.773   3.630
20495SOL    HW166332   6.650   5.836   3.607
20495SOL    HW266333   6.608   5.692   3.586
20496SOL     OW66334   6.105   5.614   3.650
20496SOL    HW166335   6.053   5.575   3.580
20496SOL    HW266336   6.076   5.705   3.654
20497SOL     OW66337   6.089   6.553   2.864
20497SOL    HW166338   6.162   6.605   2.897
20497SOL    HW266339   6.064   6.497   2.937
20498SOL     OW66340   6.839   6.348   2.920
20498SOL    HW166341   6.874   6.430   2.955
20498SOL    HW266342   6.917   6.298   2.895
20499SOL     OW66343   6.813   6.094   2.118
20499SOL    HW166344   6.819   6.019   2.177
20499SOL    HW266345   6.768   6.161   2.169
20500SOL     OW66346   5.886   5.743   3.070
20500SOL    HW166347   5.857   5.773   3.156
20500SOL    HW266348   5.879   5.647   3.076
20501SOL     OW66349   5.663   6.879   3.163
20501SOL    HW166350   5.745   6.863   3.209
20501SOL    HW266351   5.650   6.974   3.171
20502SOL     OW66352   6.334   6.191   2.944
20502SOL    HW166353   6.394   6.148   2.883
20502SOL    HW266354   6.390   6.249   2.996
20503SOL     OW66355   7.275   6.561   3.694
20503SOL    HW166356   7.272   6.551   3.599
20503SOL    HW266357   7.368   6.566   3.715
20504SOL     OW66358   5.924   5.631   2.488
20504SOL    HW166359   5.887   5.717   2.505
20504SOL    HW266360   5.929   5.589   2.574
20505SOL     OW66361   6.605   6.334   2.779
20505SOL    HW166362   6.688   6.337   2.826
20505SOL    HW266363   6.579   6.242   2.783
20506SOL     OW66364   6.570   7.050   3.623
20506SOL    HW166365   6.541   7.117   3.560
20506SOL    HW266366   6.632   6.996   3.574
20507SOL     OW66367   7.423   7.130   3.463
20507SOL    HW166368   7.473   7.105   3.386
20507SOL    HW266369   7.450   7.219   3.482
20508SOL     OW66370   5.937   6.536   3.684
20508SOL    HW166371   5.961   6.619   3.643
20508SOL    HW266372   5.988   6.470   3.636
20509SOL     OW66373   7.125   5.828   1.984
20509SOL    HW166374   7.061   5.765   2.016
20509SOL    HW266375   7.206   5.806   2.031
20510SOL     OW66376   6.863   6.392   1.874
20510SOL    HW166377   6.914   6.311   1.879
20510SOL    HW266378   6.895   6.435   1.795
20511SOL     OW66379   6.626   6.934   2.706
20511SOL    HW166380   6.636   6.869   2.636
20511SOL    HW266381   6.687   7.004   2.683
20512SOL     OW66382   5.905   6.145   2.857
20512SOL    HW166383   5.887   6.057   2.822
20512SOL    HW266384   5.972   6.180   2.799
20513SOL     OW66385   6.763   5.977   3.569
20513SOL    HW166386   6.737   6.041   3.635
20513SOL    HW266387   6.854   5.999   3.549
20514SOL     OW66388   6.728   5.809   3.345
20514SOL    HW166389   6.752   5.868   3.417
20514SOL    HW266390   6.764   5.851   3.267
20515SOL     OW66391   5.600   6.894   2.056
20515SOL    HW166392   5.509   6.910   2.033
20515SOL    HW266393   5.600   6.805   2.093
20516SOL     OW66394   5.756   7.309   2.826
20516SOL    HW166395   5.722   7.245   2.764
20516SOL    HW266396   5.818   7.361   2.775
20517SOL     OW66397   6.097   7.193   2.764
20517SOL    HW166398   6.154   7.269   2.753
20517SOL    HW266399   6.137   7.125   2.708
20518SOL     OW66400   6.525   6.335   3.083
20518SOL    HW166401   6.607   6.364   3.044
20518SOL    HW266402   6.550   6.300   3.168
20519SOL     OW66403   5.648   6.185   2.994
20519SOL    HW166404   5.700   6.183   2.913
20519SOL    HW266405   5.713   6.198   3.063
20520SOL     OW66406   5.820   6.090   3.630
20520SOL    HW166407   5.885   6.040   3.582
20520SOL    HW266408   5.799   6.163   3.573
20521SOL     OW66409   6.950   6.511   3.510
20521SOL    HW166410   6.995   6.596   3.512
20521SOL    HW266411   6.942   6.490   3.417
20522SOL     OW66412   6.417   6.119   2.227
20522SOL    HW166413   6.432   6.046   2.166
20522SOL    HW266414   6.357   6.177   2.180
20523SOL     OW66415   7.257   6.190   3.047
20523SOL    HW166416   7.255   6.130   3.122
20523SOL    HW266417   7.342   6.175   3.007
20524SOL     OW66418   5.794   7.141   3.558
20524SOL    HW166419   5.766   7.219   3.607
20524SOL    HW266420   5.811   7.075   3.626
20525SOL     OW66421   6.187   6.041   3.120
20525SOL    HW166422   6.195   5.950   3.090
20525SOL    HW266423   6.240   6.091   3.059
20526SOL     OW66424   6.486   7.251   3.443
20526SOL    HW166425   6.489   7.226   3.351
20526SOL    HW266426   6.555   7.317   3.453
20527SOL     OW66427   6.042   6.148   2.043
20527SOL    HW166428   6.127   6.191   2.055
20527SOL    HW266429   5.990   6.178   2.117
20528SOL     OW66430   5.618   6.601   3.321
20528SOL    HW166431   5.659   6.575   3.403
20528SOL    HW266432   5.677   6.568   3.253
20529SOL     OW66433   6.884   6.624   3.051
20529SOL    HW166434   6.966   6.653   3.011
20529SOL    HW266435   6.816   6.668   3.000
20530SOL     OW66436   6.921   6.450   2.139
20530SOL    HW166437   6.849   6.415   2.192
20530SOL    HW266438   6.897   6.432   2.049
20531SOL     OW66439   7.320   7.362   3.026
20531SOL    HW166440   7.373   7.438   3.050
20531SOL    HW266441   7.380   7.303   2.981
20532SOL     OW66442   6.836   7.318   2.917
20532SOL    HW166443   6.926   7.341   2.897
20532SOL    HW266444   6.840   7.226   2.946
20533SOL     OW66445   5.706   6.842   2.884
20533SOL    HW166446   5.694   6.856   2.978
20533SOL    HW266447   5.633   6.890   2.844
20534SOL     OW66448   6.275   7.267   3.621
20534SOL    HW166449   6.230   7.351   3.616
20534SOL    HW266450   6.351   7.277   3.563
20535SOL     OW66451   7.288   5.762   2.345
20535SOL    HW166452   7.341   5.701   2.294
20535SOL    HW266453   7.298   5.733   2.435
20536SOL     OW66454   6.987   7.148   2.334
20536SOL    HW166455   7.061   7.177   2.282
20536SOL    HW266456   6.944   7.229   2.363
20537SOL     OW66457   5.692   7.383   3.667
20537SOL    HW166458   5.658   7.319   3.729
20537SOL    HW266459   5.704   7.462   3.718
20538SOL     OW66460   6.831   6.539   2.517
20538SOL    HW166461   6.901   6.488   2.556
20538SOL    HW266462   6.875   6.607   2.466
20539SOL     OW66463   6.393   6.887   3.321
20539SOL    HW166464   6.352   6.928   3.397
20539SOL    HW266465   6.387   6.953   3.252
20540SOL     OW66466   6.260   7.178   1.986
20540SOL    HW166467   6.259   7.209   1.895
20540SOL    HW266468   6.195   7.108   1.988
20541SOL     OW66469   7.157   7.336   3.249
20541SOL    HW166470   7.216   7.328   3.175
20541SOL    HW266471   7.161   7.428   3.274
20542SOL     OW66472   7.365   5.728   2.725
20542SOL    HW166473   7.394   5.638   2.741
20542SOL    HW266474   7.439   5.782   2.754
20543SOL     OW66475   5.832   5.876   2.562
20543SOL    HW166476   5.750   5.921   2.542
20543SOL    HW266477   5.836   5.877   2.658
20544SOL     OW66478   6.765   7.201   1.846
20544SOL    HW166479   6.831   7.143   1.810
20544SOL    HW266480   6.753   7.269   1.780
20545SOL     OW66481   6.388   6.627   3.233
20545SOL    HW166482   6.392   6.641   3.138
20545SOL    HW266483   6.391   6.715   3.270
20546SOL     OW66484   6.505   6.478   2.159
20546SOL    HW166485   6.550   6.511   2.081
20546SOL    HW266486   6.566   6.414   2.196
20547SOL     OW66487   5.917   6.884   3.301
20547SOL    HW166488   5.912   6.978   3.289
20547SOL    HW266489   5.984   6.855   3.239
20548SOL     OW66490   7.184   6.927   3.182
20548SOL    HW166491   7.246   6.901   3.251
20548SOL    HW266492   7.240   6.953   3.109
20549SOL     OW66493   6.588   6.661   2.597
20549SOL    HW166494   6.606   6.639   2.689
20549SOL    HW266495   6.662   6.624   2.549
20550SOL     OW66496   6.589   5.837   2.818
20550SOL    HW166497   6.561   5.769   2.757
20550SOL    HW266498   6.685   5.839   2.809
20551SOL     OW66499   6.214   7.087   2.359
20551SOL    HW166500   6.255   7.023   2.301
20551SOL    HW266501   6.169   7.147   2.300
20552SOL     OW66502   7.303   5.983   3.235
20552SOL    HW166503   7.371   6.040   3.273
20552SOL    HW266504   7.351   5.924   3.178
20553SOL     OW66505   5.846   6.937   2.189
20553SOL    HW166506   5.767   6.934   2.135
20553SOL    HW266507   5.821   6.993   2.263
20554SOL     OW66508   5.680   6.527   3.585
20554SOL    HW166509   5.613   6.533   3.653
20554SOL    HW266510   5.763   6.542   3.630
20555SOL     OW66511   6.231   5.804   3.420
20555SOL    HW166512   6.308   5.801   3.364
20555SOL    HW266513   6.265   5.830   3.506
20556SOL     OW66514   5.666   5.948   1.897
20556SOL    HW166515   5.599   5.939   1.829
20556SOL    HW266516   5.715   6.026   1.871
20557SOL     OW66517   6.972   6.448   3.244
20557SOL    HW166518   6.929   6.506   3.181
20557SOL    HW266519   7.064   6.449   3.220
20558SOL     OW66520   5.635   5.751   2.114
20558SOL    HW166521   5.627   5.816   2.044
20558SOL    HW266522   5.723   5.714   2.101
20559SOL     OW66523   6.771   6.882   1.992
20559SOL    HW166524   6.681   6.915   1.992
20559SOL    HW266525   6.802   6.896   2.081
20560SOL     OW66526   6.196   6.439   3.288
20560SOL    HW166527   6.258   6.510   3.272
20560SOL    HW266528   6.250   6.360   3.288
20561SOL     OW66529   7.094   7.412   2.871
20561SOL    HW166530   7.124   7.477   2.808
20561SOL    HW266531   7.173   7.384   2.917
20562SOL     OW66532   6.250   6.161   3.586
20562SOL    HW166533   6.313   6.220   3.628
20562SOL    HW266534   6.280   6.073   3.610
20563SOL     OW66535   7.076   6.761   3.481
20563SOL    HW166536   7.074   6.779   3.575
20563SOL    HW266537   7.163   6.790   3.453
20564SOL     OW66538   5.941   7.338   3.425
20564SOL    HW166539   5.865   7.389   3.398
20564SOL    HW266540   5.904   7.256   3.458
20565SOL     OW66541   7.228   6.454   3.149
20565SOL    HW166542   7.252   6.368   3.113
20565SOL    HW266543   7.260   6.516   3.083
20566SOL     OW66544   6.813   5.906   2.339
20566SOL    HW166545   6.882   5.840   2.334
20566SOL    HW266546   6.836   5.958   2.416
20567SOL     OW66547   6.124   6.395   2.448
20567SOL    HW166548   6.172   6.442   2.379
20567SOL    HW266549   6.061   6.341   2.401
20568SOL     OW66550   7.388   5.972   3.581
20568SOL    HW166551   7.458   5.987   3.517
20568SOL    HW266552   7.371   5.878   3.577
20569SOL     OW66553   7.314   6.513   3.412
20569SOL    HW166554   7.393   6.567   3.411
20569SOL    HW266555   7.292   6.500   3.320
20570SOL     OW66556   6.460   6.979   1.953
20570SOL    HW166557   6.405   7.052   1.982
20570SOL    HW266558   6.495   7.007   1.869
20571SOL     OW66559   6.297   7.404   2.744
20571SOL    HW166560   6.294   7.448   2.829
20571SOL    HW266561   6.381   7.358   2.743
20572SOL     OW66562   6.377   6.485   2.798
20572SOL    HW166563   6.458   6.436   2.792
20572SOL    HW266564   6.391   6.549   2.868
20573SOL     OW66565   6.632   6.528   1.925
20573SOL    HW166566   6.625   6.600   1.862
20573SOL    HW266567   6.718   6.490   1.908
20574SOL     OW66568   5.836   6.935   3.742
20574SOL    HW166569   5.760   6.923   3.799
20574SOL    HW266570   5.908   6.955   3.801
20575SOL     OW66571   5.655   6.821   2.483
20575SOL    HW166572   5.721   6.758   2.454
20575SOL    HW266573   5.693   6.906   2.461
20576SOL     OW66574   6.244   7.007   3.528
20576SOL    HW166575   6.165   7.028   3.478
20576SOL    HW266576   6.269   7.090   3.568
20577SOL     OW66577   7.433   5.808   3.072
20577SOL    HW166578   7.508   5.781   3.126
20577SOL    HW266579   7.471   5.831   2.988
20578SOL     OW66580   6.015   5.992   2.381
20578SOL    HW166581   6.048   5.934   2.313
20578SOL    HW266582   5.961   5.936   2.437
20579SOL     OW66583   7.293   6.997   2.925
20579SOL    HW166584   7.337   7.079   2.903
20579SOL    HW266585   7.364   6.937   2.948
20580SOL     OW66586   5.930   6.139   3.126
20580SOL    HW166587   6.017   6.104   3.142
20580SOL    HW266588   5.921   6.138   3.031
20581SOL     OW66589   6.425   7.223   2.480
20581SOL    HW166590   6.420   7.304   2.429
20581SOL    HW266591   6.352   7.170   2.447
20582SOL     OW66592   7.047   5.803   3.053
20582SOL    HW166593   7.127   5.848   3.025
20582SOL    HW266594   7.063   5.781   3.145
20583SOL     OW66595   6.376   6.908   2.221
20583SOL    HW166596   6.396   6.906   2.127
20583SOL    HW266597   6.457   6.938   2.262
20584SOL     OW66598   6.196   7.133   3.192
20584SOL    HW166599   6.198   7.225   3.218
20584SOL    HW266600   6.280   7.119   3.148
20585SOL     OW66601   6.966   5.620   2.068
20585SOL    HW166602   7.007   5.555   2.011
20585SOL    HW266603   6.876   5.589   2.079
20586SOL     OW66604   6.867   6.063   2.565
20586SOL    HW166605   6.811   6.140   2.551
20586SOL    HW266606   6.954   6.100   2.583
20587SOL     OW66607   7.127   5.845   2.765
20587SOL    HW166608   7.209   5.796   2.758
20587SOL    HW266609   7.141   5.923   2.711
20588SOL     OW66610   5.619   6.642   2.177
20588SOL    HW166611   5.709   6.634   2.145
20588SOL    HW266612   5.596   6.553   2.204
20589SOL     OW66613   6.463   7.245   2.162
20589SOL    HW166614   6.395   7.232   2.096
20589SOL    HW266615   6.435   7.323   2.210
20590SOL     OW66616   5.832   6.241   3.867
20590SOL    HW166617   5.740   6.220   3.885
20590SOL    HW266618   5.848   6.206   3.780
20591SOL     OW66619   5.798   5.867   4.732
20591SOL    HW166620   5.844   5.840   4.812
20591SOL    HW266621   5.708   5.838   4.745
20592SOL     OW66622   5.612   6.027   4.355
20592SOL    HW166623   5.535   6.032   4.411
20592SOL    HW266624   5.589   5.961   4.289
20593SOL     OW66625   6.112   6.864   4.891
20593SOL    HW166626   6.040   6.904   4.843
20593SOL    HW266627   6.146   6.935   4.946
20594SOL     OW66628   7.155   7.093   4.407
20594SOL    HW166629   7.100   7.091   4.486
20594SOL    HW266630   7.094   7.109   4.335
20595SOL     OW66631   6.680   6.295   4.421
20595SOL    HW166632   6.733   6.372   4.400
20595SOL    HW266633   6.681   6.291   4.516
20596SOL     OW66634   7.336   6.155   3.968
20596SOL    HW166635   7.297   6.174   3.883
20596SOL    HW266636   7.399   6.086   3.951
20597SOL     OW66637   6.291   6.707   4.760
20597SOL    HW166638   6.224   6.744   4.818
20597SOL    HW266639   6.328   6.782   4.714
20598SOL     OW66640   6.468   6.328   5.515
20598SOL    HW166641   6.498   6.391   5.581
20598SOL    HW266642   6.480   6.374   5.432
20599SOL     OW66643   6.302   6.579   4.386
20599SOL    HW166644   6.390   6.610   4.406
20599SOL    HW266645   6.244   6.648   4.417
20600SOL     OW66646   6.301   6.745   5.558
20600SOL    HW166647   6.358   6.813   5.594
20600SOL    HW266648   6.231   6.794   5.514
20601SOL     OW66649   5.915   7.021   4.765
20601SOL    HW166650   5.837   7.031   4.711
20601SOL    HW266651   5.980   7.078   4.724
20602SOL     OW66652   7.054   7.089   5.127
20602SOL    HW166653   7.098   7.173   5.110
20602SOL    HW266654   7.091   7.060   5.210
20603SOL     OW66655   6.092   5.946   5.164
20603SOL    HW166656   6.163   5.969   5.104
20603SOL    HW266657   6.128   5.875   5.217
20604SOL     OW66658   7.182   6.088   4.476
20604SOL    HW166659   7.161   6.114   4.387
20604SOL    HW266660   7.274   6.062   4.472
20605SOL     OW66661   5.843   7.328   4.182
20605SOL    HW166662   5.864   7.396   4.246
20605SOL    HW266663   5.906   7.343   4.111
20606SOL     OW66664   6.718   6.925   5.412
20606SOL    HW166665   6.775   6.912   5.488
20606SOL    HW266666   6.666   6.845   5.407
20607SOL     OW66667   5.753   7.083   4.295
20607SOL    HW166668   5.793   7.161   4.256
20607SOL    HW266669   5.704   7.117   4.370
20608SOL     OW66670   5.847   6.698   4.589
20608SOL    HW166671   5.867   6.610   4.621
20608SOL    HW266672   5.790   6.735   4.656
20609SOL     OW66673   6.117   7.372   5.104
20609SOL    HW166674   6.058   7.347   5.175
20609SOL    HW266675   6.166   7.446   5.138
20610SOL     OW66676   7.179   5.691   5.155
20610SOL    HW166677   7.244   5.725   5.094
20610SOL    HW266678   7.174   5.756   5.224
20611SOL     OW66679   7.416   7.327   4.093
20611SOL    HW166680   7.500   7.292   4.123
20611SOL    HW266681   7.439   7.408   4.046
20612SOL     OW66682   5.632   7.179   3.841
20612SOL    HW166683   5.607   7.090   3.865
20612SOL    HW266684   5.617   7.231   3.920
20613SOL     OW66685   7.263   6.433   4.337
20613SOL    HW166686   7.332   6.455   4.400
20613SOL    HW266687   7.288   6.477   4.256
20614SOL     OW66688   7.228   6.689   4.155
20614SOL    HW166689   7.311   6.687   4.108
20614SOL    HW266690   7.247   6.741   4.234
20615SOL     OW66691   5.778   6.334   5.325
20615SOL    HW166692   5.873   6.345   5.325
20615SOL    HW266693   5.744   6.419   5.352
20616SOL     OW66694   6.195   7.004   4.425
20616SOL    HW166695   6.158   6.916   4.434
20616SOL    HW266696   6.177   7.028   4.334
20617SOL     OW66697   6.897   6.799   5.134
20617SOL    HW166698   6.955   6.755   5.071
20617SOL    HW266699   6.947   6.801   5.215
20618SOL     OW66700   6.380   5.711   4.278
20618SOL    HW166701   6.439   5.770   4.231
20618SOL    HW266702   6.433   5.677   4.350
20619SOL     OW66703   5.784   6.539   4.993
20619SOL    HW166704   5.872   6.500   4.986
20619SOL    HW266705   5.762   6.563   4.904
20620SOL     OW66706   7.096   6.592   3.907
20620SOL    HW166707   7.161   6.571   3.841
20620SOL    HW266708   7.147   6.618   3.984
20621SOL     OW66709   6.730   7.418   5.362
20621SOL    HW166710   6.748   7.482   5.294
20621SOL    HW266711   6.759   7.334   5.324
20622SOL     OW66712   5.942   5.856   5.505
20622SOL    HW166713   6.011   5.900   5.554
20622SOL    HW266714   5.867   5.855   5.564
20623SOL     OW66715   7.004   7.029   4.641
20623SOL    HW166716   6.969   7.032   4.730
20623SOL    HW266717   7.016   6.936   4.622
20624SOL     OW66718   7.234   7.388   4.292
20624SOL    HW166719   7.294   7.356   4.224
20624SOL    HW266720   7.233   7.319   4.358
20625SOL     OW66721   6.247   6.319   3.985
20625SOL    HW166722   6.328   6.355   3.950
20625SOL    HW266723   6.206   6.392   4.031
20626SOL     OW66724   6.803   5.991   4.697
20626SOL    HW166725   6.743   5.917   4.696
20626SOL    HW266726   6.886   5.954   4.727
20627SOL     OW66727   7.151   7.255   4.025
20627SOL    HW166728   7.245   7.269   4.036
20627SOL    HW266729   7.140   7.240   3.931
20628SOL     OW66730   6.306   6.213   5.142
20628SOL    HW166731   6.300   6.185   5.233
20628SOL    HW266732   6.300   6.133   5.091
20629SOL     OW66733   6.977   6.028   5.385
20629SOL    HW166734   6.987   6.083   5.463
20629SOL    HW266735   7.040   5.957   5.397
20630SOL     OW66736   6.514   6.470   5.285
20630SOL    HW166737   6.578   6.412   5.243
20630SOL    HW266738   6.481   6.524   5.213
20631SOL     OW66739   6.524   6.005   4.845
20631SOL    HW166740   6.597   6.029   4.902
20631SOL    HW266741   6.552   5.925   4.801
20632SOL     OW66742   6.540   6.285   4.181
20632SOL    HW166743   6.579   6.290   4.268
20632SOL    HW266744   6.601   6.230   4.131
20633SOL     OW66745   5.698   6.371   4.488
20633SOL    HW166746   5.773   6.389   4.545
20633SOL    HW266747   5.641   6.446   4.500
20634SOL     OW66748   5.684   7.417   5.286
20634SOL    HW166749   5.680   7.408   5.381
20634SOL    HW266750   5.688   7.511   5.271
20635SOL     OW66751   6.499   5.959   3.889
20635SOL    HW166752   6.544   6.035   3.853
20635SOL    HW266753   6.545   5.883   3.853
20636SOL     OW66754   7.242   6.157   5.590
20636SOL    HW166755   7.224   6.228   5.527
20636SOL    HW266756   7.294   6.094   5.540
20637SOL     OW66757   6.961   6.713   4.247
20637SOL    HW166758   7.048   6.704   4.208
20637SOL    HW266759   6.922   6.788   4.203
20638SOL     OW66760   6.151   5.731   4.639
20638SOL    HW166761   6.152   5.749   4.733
20638SOL    HW266762   6.190   5.808   4.599
20639SOL     OW66763   6.562   7.023   4.207
20639SOL    HW166764   6.525   7.095   4.156
20639SOL    HW266765   6.556   7.051   4.298
20640SOL     OW66766   5.957   7.431   4.627
20640SOL    HW166767   6.005   7.348   4.621
20640SOL    HW266768   6.026   7.497   4.635
20641SOL     OW66769   7.389   6.591   4.583
20641SOL    HW166770   7.422   6.673   4.547
20641SOL    HW266771   7.332   6.617   4.655
20642SOL     OW66772   6.793   7.153   5.259
20642SOL    HW166773   6.778   7.068   5.302
20642SOL    HW266774   6.874   7.141   5.210
20643SOL     OW66775   5.852   6.504   3.956
20643SOL    HW166776   5.888   6.553   3.881
20643SOL    HW266777   5.861   6.412   3.931
20644SOL     OW66778   7.041   6.366   4.477
20644SOL    HW166779   7.069   6.277   4.500
20644SOL    HW266780   7.115   6.403   4.429
20645SOL     OW66781   6.057   6.870   5.480
20645SOL    HW166782   6.027   6.862   5.390
20645SOL    HW266783   5.976   6.877   5.532
20646SOL     OW66784   6.751   7.383   3.913
20646SOL    HW166785   6.733   7.349   4.001
20646SOL    HW266786   6.763   7.304   3.860
20647SOL     OW66787   5.805   5.868   5.248
20647SOL    HW166788   5.790   5.959   5.223
20647SOL    HW266789   5.873   5.873   5.316
20648SOL     OW66790   7.183   6.977   3.841
20648SOL    HW166791   7.153   7.063   3.812
20648SOL    HW266792   7.129   6.915   3.792
20649SOL     OW66793   6.059   7.408   3.993
20649SOL    HW166794   6.103   7.439   4.072
20649SOL    HW266795   6.114   7.337   3.960
20650SOL     OW66796   6.967   5.590   4.181
20650SOL    HW166797   6.969   5.608   4.087
20650SOL    HW266798   7.059   5.582   4.206
20651SOL     OW66799   5.900   7.417   4.927
20651SOL    HW166800   5.978   7.406   4.982
20651SOL    HW266801   5.934   7.429   4.839
20652SOL     OW66802   6.550   7.283   4.645
20652SOL    HW166803   6.641   7.270   4.672
20652SOL    HW266804   6.536   7.218   4.576
20653SOL     OW66805   5.959   6.274   4.266
20653SOL    HW166806   5.979   6.187   4.231
20653SOL    HW266807   6.043   6.309   4.294
20654SOL     OW66808   7.138   5.805   5.452
20654SOL    HW166809   7.117   5.826   5.543
20654SOL    HW266810   7.149   5.710   5.452
20655SOL     OW66811   6.218   5.663   3.902
20655SOL    HW166812   6.308   5.630   3.901
20655SOL    HW266813   6.185   5.644   3.814
20656SOL     OW66814   6.345   5.907   5.511
20656SOL    HW166815   6.418   5.853   5.479
20656SOL    HW266816   6.367   5.923   5.603
20657SOL     OW66817   6.425   7.040   4.908
20657SOL    HW166818   6.410   7.012   4.818
20657SOL    HW266819   6.520   7.050   4.915
20658SOL     OW66820   6.926   6.174   5.153
20658SOL    HW166821   6.965   6.133   5.230
20658SOL    HW266822   6.968   6.260   5.148
20659SOL     OW66823   6.389   6.937   4.646
20659SOL    HW166824   6.478   6.932   4.613
20659SOL    HW266825   6.339   6.980   4.577
20660SOL     OW66826   6.398   6.139   4.629
20660SOL    HW166827   6.413   6.106   4.540
20660SOL    HW266828   6.446   6.078   4.686
20661SOL     OW66829   6.991   6.792   3.742
20661SOL    HW166830   7.029   6.721   3.794
20661SOL    HW266831   6.922   6.828   3.798
20662SOL     OW66832   5.885   5.638   3.875
20662SOL    HW166833   5.922   5.716   3.833
20662SOL    HW266834   5.960   5.592   3.912
20663SOL     OW66835   6.563   5.875   4.158
20663SOL    HW166836   6.549   5.914   4.071
20663SOL    HW266837   6.658   5.878   4.170
20664SOL     OW66838   6.667   6.268   5.176
20664SOL    HW166839   6.652   6.184   5.219
20664SOL    HW266840   6.761   6.271   5.159
20665SOL     OW66841   6.782   7.123   4.479
20665SOL    HW166842   6.797   7.200   4.425
20665SOL    HW266843   6.857   7.120   4.538
20666SOL     OW66844   6.074   6.750   4.426
20666SOL    HW166845   6.005   6.739   4.490
20666SOL    HW266846   6.034   6.724   4.343
20667SOL     OW66847   6.820   7.355   4.327
20667SOL    HW166848   6.879   7.417   4.284
20667SOL    HW266849   6.760   7.410   4.377
20668SOL     OW66850   6.657   6.162   3.776
20668SOL    HW166851   6.712   6.231   3.737
20668SOL    HW266852   6.691   6.154   3.866
20669SOL     OW66853   5.718   6.135   5.147
20669SOL    HW166854   5.804   6.138   5.104
20669SOL    HW266855   5.718   6.210   5.206
20670SOL     OW66856   6.140   5.759   4.911
20670SOL    HW166857   6.169   5.684   4.962
20670SOL    HW266858   6.051   5.776   4.940
20671SOL     OW66859   6.417   6.041   4.366
20671SOL    HW166860   6.374   6.052   4.281
20671SOL    HW266861   6.498   5.994   4.346
20672SOL     OW66862   6.569   5.644   4.473
20672SOL    HW166863   6.658   5.635   4.439
20672SOL    HW266864   6.552   5.561   4.518
20673SOL     OW66865   7.063   6.771   4.546
20673SOL    HW166866   7.005   6.736   4.478
20673SOL    HW266867   7.144   6.792   4.500
20674SOL     OW66868   7.100   6.168   4.740
20674SOL    HW166869   7.141   6.137   4.659
20674SOL    HW266870   7.173   6.174   4.802
20675SOL     OW66871   7.414   6.394   4.093
20675SOL    HW166872   7.464   6.348   4.160
20675SOL    HW266873   7.390   6.327   4.029
20676SOL     OW66874   6.067   6.973   3.893
20676SOL    HW166875   6.055   6.982   3.988
20676SOL    HW266876   6.135   6.906   3.884
20677SOL     OW66877   7.276   6.842   4.386
20677SOL    HW166878   7.370   6.839   4.407
20677SOL    HW266879   7.255   6.936   4.385
20678SOL     OW66880   6.982   6.139   3.793
20678SOL    HW166881   6.982   6.047   3.817
20678SOL    HW266882   7.073   6.158   3.771
20679SOL     OW66883   6.097   5.851   4.061
20679SOL    HW166884   6.131   5.800   3.986
20679SOL    HW266885   6.112   5.942   4.036
20680SOL     OW66886   7.334   6.822   5.373
20680SOL    HW166887   7.396   6.787   5.309
20680SOL    HW266888   7.389   6.860   5.441
20681SOL     OW66889   6.675   6.910   5.026
20681SOL    HW166890   6.601   6.908   5.087
20681SOL    HW266891   6.748   6.871   5.074
20682SOL     OW66892   7.213   7.194   5.364
20682SOL    HW166893   7.212   7.251   5.287
20682SOL    HW266894   7.306   7.177   5.380
20683SOL     OW66895   6.677   6.760   4.794
20683SOL    HW166896   6.678   6.817   4.870
20683SOL    HW266897   6.679   6.820   4.719
20684SOL     OW66898   7.190   6.662   4.779
20684SOL    HW166899   7.190   6.730   4.846
20684SOL    HW266900   7.137   6.699   4.708
20685SOL     OW66901   6.475   5.685   5.065
20685SOL    HW166902   6.508   5.634   4.991
20685SOL    HW266903   6.552   5.729   5.100
20686SOL     OW66904   6.560   6.693   5.448
20686SOL    HW166905   6.469   6.714   5.469
20686SOL    HW266906   6.554   6.620   5.386
20687SOL     OW66907   6.300   6.621   4.111
20687SOL    HW166908   6.300   6.599   4.205
20687SOL    HW266909   6.373   6.571   4.075
20688SOL     OW66910   6.027   6.400   4.959
20688SOL    HW166911   6.080   6.435   5.030
20688SOL    HW266912   6.005   6.311   4.987
20689SOL     OW66913   6.769   6.024   4.985
20689SOL    HW166914   6.825   6.078   5.042
20689SOL    HW266915   6.818   6.018   4.903
20690SOL     OW66916   5.671   7.170   5.085
20690SOL    HW166917   5.666   7.265   5.098
20690SOL    HW266918   5.765   7.152   5.074
20691SOL     OW66919   5.932   6.680   4.197
20691SOL    HW166920   5.898   6.760   4.159
20691SOL    HW266921   5.931   6.617   4.125
20692SOL     OW66922   6.123   6.168   4.577
20692SOL    HW166923   6.138   6.216   4.496
20692SOL    HW266924   6.211   6.154   4.613
20693SOL     OW66925   6.821   6.936   4.142
20693SOL    HW166926   6.881   7.007   4.163
20693SOL    HW266927   6.736   6.966   4.175
20694SOL     OW66928   6.891   7.051   4.900
20694SOL    HW166929   6.954   7.065   4.970
20694SOL    HW266930   6.817   7.009   4.943
20695SOL     OW66931   7.198   6.182   4.210
20695SOL    HW166932   7.223   6.266   4.247
20695SOL    HW266933   7.249   6.175   4.129
20696SOL     OW66934   5.917   7.056   5.040
20696SOL    HW166935   5.906   7.043   4.946
20696SOL    HW266936   6.006   7.089   5.049
20697SOL     OW66937   6.054   6.332   5.364
20697SOL    HW166938   6.095   6.391   5.301
20697SOL    HW266939   6.121   6.267   5.384
20698SOL     OW66940   7.160   6.332   5.396
20698SOL    HW166941   7.087   6.393   5.404
20698SOL    HW266942   7.224   6.379   5.342
20699SOL     OW66943   6.550   5.744   5.440
20699SOL    HW166944   6.615   5.813   5.426
20699SOL    HW266945   6.591   5.665   5.404
20700SOL     OW66946   6.063   5.609   5.463
20700SOL    HW166947   6.003   5.557   5.409
20700SOL    HW266948   6.022   5.695   5.466
20701SOL     OW66949   6.247   6.431   4.772
20701SOL    HW166950   6.254   6.526   4.765
20701SOL    HW266951   6.175   6.417   4.835
20702SOL     OW66952   6.926   6.384   4.728
20702SOL    HW166953   6.965   6.411   4.645
20702SOL    HW266954   6.984   6.313   4.758
20703SOL     OW66955   6.733   6.148   4.039
20703SOL    HW166956   6.781   6.075   4.079
20703SOL    HW266957   6.795   6.220   4.038
20704SOL     OW66958   5.873   5.778   4.985
20704SOL    HW166959   5.863   5.807   5.075
20704SOL    HW266960   5.848   5.685   4.987
20705SOL     OW66961   5.612   6.906   5.006
20705SOL    HW166962   5.654   6.853   5.074
20705SOL    HW266963   5.635   6.996   5.028
20706SOL     OW66964   7.328   6.557   5.581
20706SOL    HW166965   7.277   6.590   5.507
20706SOL    HW266966   7.272   6.573   5.657
20707SOL     OW66967   5.985   5.666   4.340
20707SOL    HW166968   5.935   5.743   4.368
20707SOL    HW266969   5.985   5.608   4.416
20708SOL     OW66970   7.108   5.928   4.131
20708SOL    HW166971   7.183   5.875   4.159
20708SOL    HW266972   7.133   6.018   4.153
20709SOL     OW66973   6.688   6.254   4.697
20709SOL    HW166974   6.763   6.309   4.718
20709SOL    HW266975   6.721   6.165   4.704
20710SOL     OW66976   6.561   7.140   5.494
20710SOL    HW166977   6.531   7.204   5.428
20710SOL    HW266978   6.605   7.072   5.443
20711SOL     OW66979   5.954   6.443   5.597
20711SOL    HW166980   6.026   6.493   5.635
20711SOL    HW266981   5.989   6.408   5.516
20712SOL     OW66982   7.033   5.869   3.865
20712SOL    HW166983   7.000   5.780   3.881
20712SOL    HW266984   7.073   5.895   3.948
20713SOL     OW66985   6.840   6.365   3.717
20713SOL    HW166986   6.901   6.293   3.732
20713SOL    HW266987   6.879   6.415   3.645
20714SOL     OW66988   6.644   6.903   4.556
20714SOL    HW166989   6.651   6.842   4.483
20714SOL    HW266990   6.694   6.980   4.529
20715SOL     OW66991   5.912   6.425   4.660
20715SOL    HW166992   6.005   6.436   4.638
20715SOL    HW266993   5.911   6.354   4.723
20716SOL     OW66994   5.904   6.125   4.737
20716SOL    HW166995   5.876   6.035   4.719
20716SOL    HW266996   5.979   6.139   4.680
20717SOL     OW66997   6.712   5.964   5.390
20717SOL    HW166998   6.681   6.016   5.464
20717SOL    HW266999   6.806   5.984   5.385
20718SOL     OW67000   6.701   5.814   5.156
20718SOL    HW167001   6.708   5.864   5.237
20718SOL    HW267002   6.733   5.873   5.088
20719SOL     OW67003   5.603   6.892   3.910
20719SOL    HW167004   5.516   6.916   3.878
20719SOL    HW267005   5.592   6.804   3.946
20720SOL     OW67006   5.683   7.408   4.657
20720SOL    HW167007   5.665   7.339   4.593
20720SOL    HW267008   5.778   7.417   4.655
20721SOL     OW67009   6.085   7.176   4.616
20721SOL    HW167010   6.158   7.235   4.635
20721SOL    HW267011   6.119   7.118   4.548
20722SOL     OW67012   6.491   6.319   4.967
20722SOL    HW167013   6.572   6.314   5.019
20722SOL    HW267014   6.422   6.291   5.027
20723SOL     OW67015   5.646   6.151   4.866
20723SOL    HW167016   5.724   6.151   4.811
20723SOL    HW267017   5.679   6.170   4.954
20724SOL     OW67018   5.783   6.104   5.469
20724SOL    HW167019   5.877   6.087   5.472
20724SOL    HW267020   5.775   6.189   5.425
20725SOL     OW67021   6.956   6.521   5.383
20725SOL    HW167022   6.988   6.611   5.381
20725SOL    HW267023   6.952   6.495   5.291
20726SOL     OW67024   6.318   6.070   4.099
20726SOL    HW167025   6.379   6.032   4.036
20726SOL    HW267026   6.310   6.162   4.073
20727SOL     OW67027   7.302   6.193   4.933
20727SOL    HW167028   7.278   6.150   5.015
20727SOL    HW267029   7.398   6.193   4.934
20728SOL     OW67030   5.793   7.114   5.444
20728SOL    HW167031   5.777   7.194   5.493
20728SOL    HW267032   5.817   7.049   5.510
20729SOL     OW67033   6.285   5.990   4.978
20729SOL    HW167034   6.253   5.905   4.946
20729SOL    HW267035   6.370   6.001   4.935
20730SOL     OW67036   6.456   7.290   5.271
20730SOL    HW167037   6.509   7.235   5.212
20730SOL    HW267038   6.466   7.378   5.237
20731SOL     OW67039   6.063   6.097   3.927
20731SOL    HW167040   6.134   6.160   3.941
20731SOL    HW267041   5.984   6.151   3.919
20732SOL     OW67042   5.698   6.706   5.196
20732SOL    HW167043   5.704   6.657   5.278
20732SOL    HW267044   5.726   6.644   5.128
20733SOL     OW67045   6.840   6.568   4.916
20733SOL    HW167046   6.878   6.515   4.846
20733SOL    HW267047   6.795   6.639   4.870
20734SOL     OW67048   6.868   6.387   4.004
20734SOL    HW167049   6.936   6.445   4.038
20734SOL    HW267050   6.883   6.385   3.910
20735SOL     OW67051   7.365   7.315   4.892
20735SOL    HW167052   7.421   7.347   4.822
20735SOL    HW267053   7.321   7.238   4.855
20736SOL     OW67054   6.805   7.274   4.750
20736SOL    HW167055   6.883   7.325   4.726
20736SOL    HW267056   6.839   7.205   4.807
20737SOL     OW67057   5.627   6.797   4.746
20737SOL    HW167058   5.634   6.820   4.839
20737SOL    HW267059   5.584   6.873   4.706
20738SOL     OW67060   6.260   7.267   5.468
20738SOL    HW167061   6.195   7.337   5.459
20738SOL    HW267062   6.327   7.289   5.404
20739SOL     OW67063   7.331   5.787   4.220
20739SOL    HW167064   7.396   5.771   4.151
20739SOL    HW267065   7.307   5.700   4.252
20740SOL     OW67066   6.973   7.154   4.205
20740SOL    HW167067   7.036   7.190   4.142
20740SOL    HW267068   6.927   7.231   4.239
20741SOL     OW67069   5.728   7.358   5.561
20741SOL    HW167070   5.673   7.300   5.614
20741SOL    HW267071   5.780   7.406   5.625
20742SOL     OW67072   6.831   6.523   4.391
20742SOL    HW167073   6.906   6.472   4.421
20742SOL    HW267074   6.869   6.588   4.332
20743SOL     OW67075   6.418   6.900   5.153
20743SOL    HW167076   6.371   6.937   5.229
20743SOL    HW267077   6.396   6.959   5.081
20744SOL     OW67078   6.222   7.214   3.887
20744SOL    HW167079   6.253   7.236   3.799
20744SOL    HW267080   6.169   7.135   3.875
20745SOL     OW67081   7.197   7.323   5.116
20745SOL    HW167082   7.257   7.330   5.042
20745SOL    HW267083   7.179   7.414   5.141
20746SOL     OW67084   7.407   5.782   4.704
20746SOL    HW167085   7.455   5.705   4.676
20746SOL    HW267086   7.338   5.792   4.639
20747SOL     OW67087   5.834   5.871   4.452
20747SOL    HW167088   5.753   5.919   4.434
20747SOL    HW267089   5.836   5.862   4.547
20748SOL     OW67090   6.791   7.149   3.769
20748SOL    HW167091   6.803   7.061   3.805
20748SOL    HW267092   6.718   7.140   3.709
20749SOL     OW67093   6.403   6.634   5.093
20749SOL    HW167094   6.440   6.638   5.006
20749SOL    HW267095   6.403   6.724   5.124
20750SOL     OW67096   6.495   6.475   3.988
20750SOL    HW167097   6.576   6.503   3.946
20750SOL    HW267098   6.523   6.414   4.057
20751SOL     OW67099   7.065   7.226   3.761
20751SOL    HW167100   6.972   7.210   3.748
20751SOL    HW267101   7.102   7.231   3.673
20752SOL     OW67102   5.932   6.859   5.239
20752SOL    HW167103   5.936   6.930   5.175
20752SOL    HW267104   5.851   6.812   5.219
20753SOL     OW67105   7.186   6.855   4.982
20753SOL    HW167106   7.280   6.870   4.998
20753SOL    HW267107   7.143   6.933   5.018
20754SOL     OW67108   6.574   6.634   4.437
20754SOL    HW167109   6.570   6.605   4.529
20754SOL    HW267110   6.658   6.602   4.405
20755SOL     OW67111   6.612   5.788   4.706
20755SOL    HW167112   6.595   5.754   4.618
20755SOL    HW267113   6.615   5.710   4.762
20756SOL     OW67114   6.179   7.067   4.156
20756SOL    HW167115   6.239   7.000   4.124
20756SOL    HW267116   6.218   7.150   4.129
20757SOL     OW67117   7.357   6.004   5.154
20757SOL    HW167118   7.432   6.059   5.131
20757SOL    HW267119   7.359   5.933   5.090
20758SOL     OW67120   5.819   6.906   4.089
20758SOL    HW167121   5.744   6.918   4.030
20758SOL    HW267122   5.806   6.972   4.157
20759SOL     OW67123   5.704   6.571   5.443
20759SOL    HW167124   5.628   6.568   5.502
20759SOL    HW267125   5.777   6.595   5.500
20760SOL     OW67126   6.272   5.745   5.244
20760SOL    HW167127   6.344   5.726   5.184
20760SOL    HW267128   6.315   5.774   5.325
20761SOL     OW67129   5.626   5.941   3.765
20761SOL    HW167130   5.568   5.934   3.688
20761SOL    HW267131   5.706   5.980   3.731
20762SOL     OW67132   6.973   6.445   5.119
20762SOL    HW167133   6.917   6.493   5.059
20762SOL    HW267134   7.061   6.452   5.081
20763SOL     OW67135   5.642   5.738   3.961
20763SOL    HW167136   5.631   5.807   3.896
20763SOL    HW267137   5.729   5.702   3.944
20764SOL     OW67138   6.775   6.885   3.877
20764SOL    HW167139   6.680   6.879   3.872
20764SOL    HW267140   6.794   6.899   3.970
20765SOL     OW67141   6.194   6.463   5.165
20765SOL    HW167142   6.254   6.536   5.151
20765SOL    HW267143   6.250   6.385   5.157
20766SOL     OW67144   7.050   7.392   4.697
20766SOL    HW167145   7.070   7.477   4.656
20766SOL    HW267146   7.132   7.363   4.734
20767SOL     OW67147   6.271   6.160   5.414
20767SOL    HW167148   6.336   6.216   5.457
20767SOL    HW267149   6.293   6.071   5.443
20768SOL     OW67150   7.062   6.781   5.357
20768SOL    HW167151   7.044   6.797   5.450
20768SOL    HW267152   7.156   6.796   5.348
20769SOL     OW67153   5.930   7.303   5.290
20769SOL    HW167154   5.847   7.347   5.273
20769SOL    HW267155   5.906   7.219   5.329
20770SOL     OW67156   7.207   6.460   4.975
20770SOL    HW167157   7.248   6.381   4.940
20770SOL    HW267158   7.210   6.522   4.902
20771SOL     OW67159   6.834   5.926   4.174
20771SOL    HW167160   6.927   5.910   4.157
20771SOL    HW267161   6.830   5.955   4.265
20772SOL     OW67162   6.216   6.319   4.356
20772SOL    HW167163   6.243   6.409   4.371
20772SOL    HW267164   6.295   6.275   4.325
20773SOL     OW67165   7.362   5.965   5.431
20773SOL    HW167166   7.370   5.989   5.339
20773SOL    HW267167   7.290   5.902   5.433
20774SOL     OW67168   7.295   6.507   5.234
20774SOL    HW167169   7.366   6.572   5.232
20774SOL    HW267170   7.270   6.497   5.142
20775SOL     OW67171   6.502   6.873   3.825
20775SOL    HW167172   6.447   6.910   3.894
20775SOL    HW267173   6.512   6.943   3.761
20776SOL     OW67174   6.275   7.366   4.641
20776SOL    HW167175   6.263   7.460   4.648
20776SOL    HW267176   6.369   7.353   4.655
20777SOL     OW67177   6.518   6.560   4.703
20777SOL    HW167178   6.588   6.615   4.739
20777SOL    HW267179   6.438   6.610   4.717
20778SOL     OW67180   6.678   6.581   3.807
20778SOL    HW167181   6.736   6.657   3.813
20778SOL    HW267182   6.733   6.510   3.775
20779SOL     OW67183   7.522   7.112   4.575
20779SOL    HW167184   7.579   7.086   4.503
20779SOL    HW267185   7.501   7.030   4.620
20780SOL     OW67186   5.825   6.900   5.627
20780SOL    HW167187   5.730   6.892   5.637
20780SOL    HW267188   5.857   6.919   5.715
20781SOL     OW67189   5.674   6.832   4.410
20781SOL    HW167190   5.750   6.793   4.451
20781SOL    HW267191   5.708   6.907   4.362
20782SOL     OW67192   6.273   7.006   5.364
20782SOL    HW167193   6.192   6.972   5.401
20782SOL    HW267194   6.280   7.095   5.398
20783SOL     OW67195   7.364   5.792   4.976
20783SOL    HW167196   7.456   5.780   4.999
20783SOL    HW267197   7.362   5.790   4.880
20784SOL     OW67198   5.909   6.008   4.221
20784SOL    HW167199   5.961   5.956   4.160
20784SOL    HW267200   5.902   5.954   4.300
20785SOL     OW67201   7.252   7.099   4.773
20785SOL    HW167202   7.180   7.082   4.712
20785SOL    HW267203   7.315   7.029   4.754
20786SOL     OW67204   5.952   6.137   5.016
20786SOL    HW167205   6.006   6.072   5.061
20786SOL    HW267206   5.961   6.116   4.923
20787SOL     OW67207   6.433   7.163   4.416
20787SOL    HW167208   6.425   7.244   4.365
20787SOL    HW267209   6.346   7.124   4.413
20788SOL     OW67210   6.996   5.837   4.829
20788SOL    HW167211   7.007   5.743   4.811
20788SOL    HW267212   7.044   5.852   4.910
20789SOL     OW67213   6.602   5.548   4.846
20789SOL    HW167214   6.560   5.483   4.791
20789SOL    HW267215   6.692   5.516   4.857
20790SOL     OW67216   6.359   6.887   4.065
20790SOL    HW167217   6.341   6.795   4.085
20790SOL    HW267218   6.435   6.908   4.119
20791SOL     OW67219   6.181   7.120   5.005
20791SOL    HW167220   6.175   7.211   5.035
20791SOL    HW267221   6.270   7.113   4.970
20792SOL     OW67222   6.932   5.607   3.899
20792SOL    HW167223   6.996   5.540   3.878
20792SOL    HW267224   6.874   5.611   3.823
20793SOL     OW67225   6.782   6.033   4.419
20793SOL    HW167226   6.754   6.124   4.409
20793SOL    HW267227   6.806   6.025   4.511
20794SOL     OW67228   7.146   5.819   4.587
20794SOL    HW167229   7.104   5.858   4.664
20794SOL    HW267230   7.155   5.891   4.525
20795SOL     OW67231   5.606   6.634   4.045
20795SOL    HW167232   5.697   6.631   4.016
20795SOL    HW267233   5.587   6.545   4.073
20796SOL     OW67234   6.418   7.234   4.098
20796SOL    HW167235   6.380   7.251   4.012
20796SOL    HW267236   6.433   7.320   4.136
20797SOL     OW67237   5.791   6.291   5.760
20797SOL    HW167238   5.843   6.212   5.774
20797SOL    HW267239   5.838   6.340   5.693
20798SOL     OW67240   5.800   5.884   6.561
20798SOL    HW167241   5.832   5.850   6.645
20798SOL    HW267242   5.712   5.848   6.552
20799SOL     OW67243   5.572   6.006   6.213
20799SOL    HW167244   5.495   6.025   6.268
20799SOL    HW267245   5.542   5.937   6.154
20800SOL     OW67246   6.130   6.850   6.795
20800SOL    HW167247   6.059   6.890   6.744
20800SOL    HW267248   6.141   6.908   6.871
20801SOL     OW67249   7.166   7.098   6.291
20801SOL    HW167250   7.109   7.097   6.367
20801SOL    HW267251   7.108   7.115   6.217
20802SOL     OW67252   6.694   6.311   6.283
20802SOL    HW167253   6.745   6.391   6.269
20802SOL    HW267254   6.648   6.326   6.366
20803SOL     OW67255   7.365   6.176   5.835
20803SOL    HW167256   7.314   6.174   5.755
20803SOL    HW267257   7.454   6.154   5.808
20804SOL     OW67258   6.296   6.695   6.645
20804SOL    HW167259   6.235   6.733   6.709
20804SOL    HW267260   6.333   6.770   6.599
20805SOL     OW67261   6.470   6.346   7.367
20805SOL    HW167262   6.507   6.402   7.435
20805SOL    HW267263   6.482   6.397   7.286
20806SOL     OW67264   6.251   6.558   6.244
20806SOL    HW167265   6.325   6.563   6.305
20806SOL    HW267266   6.188   6.622   6.278
20807SOL     OW67267   6.202   6.807   7.387
20807SOL    HW167268   6.290   6.838   7.407
20807SOL    HW267269   6.208   6.776   7.297
20808SOL     OW67270   5.926   6.994   6.670
20808SOL    HW167271   5.846   6.970   6.624
20808SOL    HW267272   5.969   7.056   6.612
20809SOL     OW67273   7.067   7.085   7.017
20809SOL    HW167274   7.087   7.168   6.972
20809SOL    HW267275   7.111   7.093   7.102
20810SOL     OW67276   6.032   5.951   7.073
20810SOL    HW167277   6.117   5.906   7.077
20810SOL    HW267278   5.968   5.881   7.064
20811SOL     OW67279   7.207   6.035   6.341
20811SOL    HW167280   7.207   6.073   6.253
20811SOL    HW267281   7.177   6.106   6.398
20812SOL     OW67282   5.818   7.312   5.998
20812SOL    HW167283   5.840   7.368   6.073
20812SOL    HW267284   5.866   7.351   5.925
20813SOL     OW67285   5.776   7.071   6.132
20813SOL    HW167286   5.793   7.154   6.087
20813SOL    HW267287   5.729   7.096   6.212
20814SOL     OW67288   5.801   6.702   6.431
20814SOL    HW167289   5.816   6.616   6.471
20814SOL    HW267290   5.756   6.752   6.498
20815SOL     OW67291   6.183   7.415   6.950
20815SOL    HW167292   6.122   7.416   7.024
20815SOL    HW267293   6.260   7.462   6.982
20816SOL     OW67294   6.142   6.605   5.737
20816SOL    HW167295   6.197   6.646   5.670
20816SOL    HW267296   6.192   6.616   5.818
20817SOL     OW67297   7.178   5.770   7.045
20817SOL    HW167298   7.220   5.852   7.018
20817SOL    HW267299   7.154   5.785   7.136
20818SOL     OW67300   5.707   6.242   6.121
20818SOL    HW167301   5.672   6.157   6.146
20818SOL    HW267302   5.692   6.298   6.197
20819SOL     OW67303   7.414   7.321   5.947
20819SOL    HW167304   7.494   7.294   5.993
20819SOL    HW267305   7.433   7.408   5.913
20820SOL     OW67306   5.617   7.160   5.714
20820SOL    HW167307   5.599   7.075   5.752
20820SOL    HW267308   5.592   7.223   5.781
20821SOL     OW67309   7.274   6.402   6.216
20821SOL    HW167310   7.350   6.408   6.273
20821SOL    HW267311   7.302   6.440   6.133
20822SOL     OW67312   7.250   6.712   6.037
20822SOL    HW167313   7.333   6.705   5.989
20822SOL    HW267314   7.274   6.753   6.120
20823SOL     OW67315   5.785   6.306   7.219
20823SOL    HW167316   5.878   6.325   7.214
20823SOL    HW267317   5.745   6.389   7.247
20824SOL     OW67318   6.188   6.984   6.314
20824SOL    HW167319   6.149   6.898   6.324
20824SOL    HW267320   6.172   7.007   6.222
20825SOL     OW67321   6.906   6.760   7.032
20825SOL    HW167322   6.892   6.696   6.962
20825SOL    HW267323   6.995   6.792   7.017
20826SOL     OW67324   6.402   5.584   6.108
20826SOL    HW167325   6.444   5.665   6.078
20826SOL    HW267326   6.308   5.604   6.104
20827SOL     OW67327   5.767   6.576   6.902
20827SOL    HW167328   5.848   6.527   6.892
20827SOL    HW267329   5.743   6.603   6.813
20828SOL     OW67330   7.125   6.612   5.800
20828SOL    HW167331   7.060   6.549   5.832
20828SOL    HW267332   7.171   6.641   5.878
20829SOL     OW67333   6.745   7.435   7.154
20829SOL    HW167334   6.739   7.514   7.101
20829SOL    HW267335   6.838   7.410   7.148
20830SOL     OW67336   5.968   5.857   7.438
20830SOL    HW167337   6.011   5.922   7.494
20830SOL    HW267338   5.918   5.909   7.375
20831SOL     OW67339   6.984   7.045   6.502
20831SOL    HW167340   6.965   7.051   6.595
20831SOL    HW267341   6.999   6.951   6.487
20832SOL     OW67342   7.253   7.388   6.163
20832SOL    HW167343   7.306   7.349   6.094
20832SOL    HW267344   7.243   7.318   6.228
20833SOL     OW67345   6.202   6.274   5.861
20833SOL    HW167346   6.269   6.342   5.848
20833SOL    HW267347   6.142   6.313   5.925
20834SOL     OW67348   6.903   5.959   6.603
20834SOL    HW167349   6.820   5.925   6.568
20834SOL    HW267350   6.892   5.958   6.698
20835SOL     OW67351   7.134   7.272   5.871
20835SOL    HW167352   7.226   7.287   5.892
20835SOL    HW267353   7.135   7.235   5.783
20836SOL     OW67354   6.364   6.211   7.003
20836SOL    HW167355   6.340   6.185   7.092
20836SOL    HW267356   6.340   6.136   6.949
20837SOL     OW67357   6.994   6.035   7.258
20837SOL    HW167358   7.011   6.090   7.334
20837SOL    HW267359   7.056   5.962   7.266
20838SOL     OW67360   6.537   6.515   7.155
20838SOL    HW167361   6.593   6.448   7.117
20838SOL    HW267362   6.493   6.556   7.080
20839SOL     OW67363   6.571   5.985   6.802
20839SOL    HW167364   6.477   5.996   6.816
20839SOL    HW267365   6.578   5.953   6.712
20840SOL     OW67366   6.634   6.276   6.014
20840SOL    HW167367   6.658   6.289   6.105
20840SOL    HW267368   6.562   6.213   6.016
20841SOL     OW67369   5.644   6.419   6.321
20841SOL    HW167370   5.721   6.428   6.378
20841SOL    HW267371   5.578   6.475   6.362
20842SOL     OW67372   5.705   7.416   7.195
20842SOL    HW167373   5.729   7.422   7.287
20842SOL    HW267374   5.682   7.506   7.171
20843SOL     OW67375   6.497   5.913   5.758
20843SOL    HW167376   6.542   5.984   5.711
20843SOL    HW267377   6.552   5.836   5.743
20844SOL     OW67378   7.270   6.151   7.446
20844SOL    HW167379   7.265   6.224   7.384
20844SOL    HW267380   7.315   6.081   7.398
20845SOL     OW67381   6.983   6.745   6.127
20845SOL    HW167382   7.068   6.732   6.086
20845SOL    HW267383   6.938   6.808   6.070
20846SOL     OW67384   6.122   5.751   6.503
20846SOL    HW167385   6.135   5.773   6.595
20846SOL    HW267386   6.125   5.836   6.458
20847SOL     OW67387   6.584   7.002   6.071
20847SOL    HW167388   6.558   7.092   6.050
20847SOL    HW267389   6.583   6.999   6.167
20848SOL     OW67390   5.931   7.400   6.490
20848SOL    HW167391   5.986   7.321   6.493
20848SOL    HW267392   5.994   7.473   6.493
20849SOL     OW67393   7.358   6.639   6.477
20849SOL    HW167394   7.336   6.702   6.409
20849SOL    HW267395   7.286   6.644   6.540
20850SOL     OW67396   6.808   7.071   7.141
20850SOL    HW167397   6.901   7.088   7.124
20850SOL    HW267398   6.773   7.043   7.057
20851SOL     OW67399   5.885   6.584   5.833
20851SOL    HW167400   5.974   6.613   5.811
20851SOL    HW267401   5.863   6.520   5.766
20852SOL     OW67402   7.042   6.396   6.363
20852SOL    HW167403   7.059   6.320   6.419
20852SOL    HW267404   7.121   6.405   6.310
20853SOL     OW67405   6.695   7.307   5.855
20853SOL    HW167406   6.756   7.380   5.865
20853SOL    HW267407   6.726   7.261   5.776
20854SOL     OW67408   5.790   5.814   7.078
20854SOL    HW167409   5.762   5.885   7.135
20854SOL    HW267410   5.740   5.738   7.109
20855SOL     OW67411   7.220   6.964   5.687
20855SOL    HW167412   7.187   7.049   5.659
20855SOL    HW267413   7.155   6.902   5.657
20856SOL     OW67414   6.960   5.714   6.040
20856SOL    HW167415   6.960   5.672   5.955
20856SOL    HW267416   7.032   5.777   6.036
20857SOL     OW67417   5.850   7.349   6.804
20857SOL    HW167418   5.850   7.439   6.839
20857SOL    HW267419   5.872   7.359   6.712
20858SOL     OW67420   6.539   7.313   6.459
20858SOL    HW167421   6.626   7.274   6.462
20858SOL    HW267422   6.490   7.257   6.399
20859SOL     OW67423   5.979   6.269   6.048
20859SOL    HW167424   5.991   6.175   6.062
20859SOL    HW267425   5.889   6.287   6.077
20860SOL     OW67426   7.141   5.796   7.327
20860SOL    HW167427   7.115   5.830   7.412
20860SOL    HW267428   7.151   5.702   7.341
20861SOL     OW67429   6.219   5.670   5.686
20861SOL    HW167430   6.311   5.664   5.658
20861SOL    HW267431   6.169   5.640   5.610
20862SOL     OW67432   6.333   5.886   7.346
20862SOL    HW167433   6.419   5.844   7.346
20862SOL    HW267434   6.293   5.859   7.429
20863SOL     OW67435   6.405   7.060   6.778
20863SOL    HW167436   6.383   7.014   6.697
20863SOL    HW267437   6.474   7.122   6.752
20864SOL     OW67438   6.909   6.176   7.034
20864SOL    HW167439   6.952   6.134   7.108
20864SOL    HW267440   6.956   6.259   7.023
20865SOL     OW67441   6.373   6.936   6.531
20865SOL    HW167442   6.464   6.942   6.502
20865SOL    HW267443   6.322   6.963   6.455
20866SOL     OW67444   6.489   6.068   6.482
20866SOL    HW167445   6.463   6.055   6.391
20866SOL    HW267446   6.546   5.994   6.502
20867SOL     OW67447   6.133   5.631   6.064
20867SOL    HW167448   6.061   5.635   6.128
20867SOL    HW267449   6.119   5.707   6.008
20868SOL     OW67450   7.010   6.792   5.624
20868SOL    HW167451   7.044   6.727   5.685
20868SOL    HW267452   6.930   6.824   5.665
20869SOL     OW67453   5.899   5.619   5.782
20869SOL    HW167454   5.960   5.690   5.804
20869SOL    HW267455   5.947   5.539   5.803
20870SOL     OW67456   6.515   5.816   6.026
20870SOL    HW167457   6.492   5.856   5.942
20870SOL    HW267458   6.606   5.841   6.040
20871SOL     OW67459   6.662   6.299   7.043
20871SOL    HW167460   6.606   6.221   7.046
20871SOL    HW267461   6.752   6.264   7.043
20872SOL     OW67462   6.770   7.170   6.381
20872SOL    HW167463   6.801   7.234   6.318
20872SOL    HW267464   6.850   7.140   6.425
20873SOL     OW67465   6.053   6.742   6.313
20873SOL    HW167466   5.974   6.733   6.367
20873SOL    HW267467   6.021   6.738   6.223
20874SOL     OW67468   6.855   7.377   6.214
20874SOL    HW167469   6.905   7.435   6.157
20874SOL    HW267470   6.797   7.436   6.263
20875SOL     OW67471   6.617   6.106   5.608
20875SOL    HW167472   6.582   6.191   5.581
20875SOL    HW267473   6.686   6.127   5.671
20876SOL     OW67474   5.695   6.164   6.990
20876SOL    HW167475   5.786   6.158   6.960
20876SOL    HW267476   5.697   6.230   7.059
20877SOL     OW67477   6.130   5.790   6.777
20877SOL    HW167478   6.159   5.720   6.834
20877SOL    HW267479   6.036   5.795   6.790
20878SOL     OW67480   6.427   6.005   6.220
20878SOL    HW167481   6.406   6.067   6.150
20878SOL    HW267482   6.463   5.929   6.175
20879SOL     OW67483   6.612   5.655   6.336
20879SOL    HW167484   6.552   5.651   6.262
20879SOL    HW267485   6.588   5.579   6.390
20880SOL     OW67486   7.052   6.788   6.411
20880SOL    HW167487   6.998   6.763   6.336
20880SOL    HW267488   7.139   6.803   6.374
20881SOL     OW67489   7.065   6.183   6.546
20881SOL    HW167490   7.009   6.109   6.568
20881SOL    HW267491   7.132   6.184   6.614
20882SOL     OW67492   7.414   6.409   5.974
20882SOL    HW167493   7.479   6.366   6.030
20882SOL    HW267494   7.390   6.342   5.910
20883SOL     OW67495   6.083   7.042   5.759
20883SOL    HW167496   6.020   6.999   5.818
20883SOL    HW267497   6.101   6.976   5.692
20884SOL     OW67498   7.300   6.849   6.287
20884SOL    HW167499   7.392   6.872   6.296
20884SOL    HW267500   7.255   6.933   6.275
20885SOL     OW67501   6.968   6.158   5.632
20885SOL    HW167502   6.937   6.115   5.712
20885SOL    HW267503   7.064   6.155   5.639
20886SOL     OW67504   6.082   5.819   5.865
20886SOL    HW167505   6.145   5.776   5.807
20886SOL    HW267506   6.070   5.906   5.828
20887SOL     OW67507   7.355   6.846   7.147
20887SOL    HW167508   7.438   6.801   7.130
20887SOL    HW267509   7.380   6.936   7.167
20888SOL     OW67510   6.708   6.926   6.926
20888SOL    HW167511   6.621   6.911   6.962
20888SOL    HW267512   6.764   6.862   6.971
20889SOL     OW67513   7.183   7.217   7.238
20889SOL    HW167514   7.202   7.307   7.210
20889SOL    HW267515   7.269   7.175   7.239
20890SOL     OW67516   6.665   6.774   6.696
20890SOL    HW167517   6.675   6.842   6.764
20890SOL    HW267518   6.658   6.823   6.614
20891SOL     OW67519   7.156   6.685   6.658
20891SOL    HW167520   7.159   6.753   6.726
20891SOL    HW267521   7.096   6.720   6.592
20892SOL     OW67522   6.490   5.677   6.959
20892SOL    HW167523   6.514   5.658   6.869
20892SOL    HW267524   6.568   5.716   6.997
20893SOL     OW67525   6.661   6.729   7.289
20893SOL    HW167526   6.594   6.783   7.330
20893SOL    HW267527   6.612   6.657   7.248
20894SOL     OW67528   6.287   6.626   5.974
20894SOL    HW167529   6.272   6.608   6.067
20894SOL    HW267530   6.353   6.562   5.947
20895SOL     OW67531   5.996   6.425   6.862
20895SOL    HW167532   6.069   6.442   6.920
20895SOL    HW267533   5.977   6.332   6.874
20896SOL     OW67534   6.834   5.965   6.871
20896SOL    HW167535   6.866   6.039   6.923
20896SOL    HW267536   6.741   5.984   6.857
20897SOL     OW67537   5.663   7.160   6.892
20897SOL    HW167538   5.599   7.220   6.854
20897SOL    HW267539   5.748   7.201   6.876
20898SOL     OW67540   5.951   6.728   6.063
20898SOL    HW167541   5.938   6.809   6.013
20898SOL    HW267542   5.945   6.658   5.998
20899SOL     OW67543   6.107   6.075   6.431
20899SOL    HW167544   6.121   6.137   6.359
20899SOL    HW267545   6.170   6.102   6.498
20900SOL     OW67546   6.841   6.945   5.978
20900SOL    HW167547   6.895   7.018   6.008
20900SOL    HW267548   6.755   6.961   6.015
20901SOL     OW67549   6.904   7.066   6.773
20901SOL    HW167550   6.969   7.076   6.843
20901SOL    HW267551   6.831   7.022   6.815
20902SOL     OW67552   7.228   6.155   6.084
20902SOL    HW167553   7.236   6.242   6.123
20902SOL    HW267554   7.278   6.161   6.003
20903SOL     OW67555   5.937   7.031   6.945
20903SOL    HW167556   5.915   7.023   6.852
20903SOL    HW267557   6.012   7.090   6.947
20904SOL     OW67558   6.064   6.328   7.224
20904SOL    HW167559   6.107   6.383   7.158
20904SOL    HW267560   6.129   6.261   7.245
20905SOL     OW67561   7.233   6.355   7.273
20905SOL    HW167562   7.248   6.427   7.334
20905SOL    HW267563   7.269   6.387   7.190
20906SOL     OW67564   6.569   5.747   7.356
20906SOL    HW167565   6.635   5.810   7.328
20906SOL    HW267566   6.600   5.663   7.322
20907SOL     OW67567   6.083   5.615   7.351
20907SOL    HW167568   6.019   5.573   7.293
20907SOL    HW267569   6.044   5.701   7.370
20908SOL     OW67570   6.135   6.460   6.618
20908SOL    HW167571   6.191   6.537   6.618
20908SOL    HW267572   6.090   6.461   6.702
20909SOL     OW67573   6.927   6.428   6.620
20909SOL    HW167574   6.950   6.461   6.533
20909SOL    HW267575   6.963   6.340   6.623
20910SOL     OW67576   6.769   6.100   5.843
20910SOL    HW167577   6.782   6.027   5.904
20910SOL    HW267578   6.740   6.173   5.899
20911SOL     OW67579   5.857   5.775   6.812
20911SOL    HW167580   5.827   5.799   6.900
20911SOL    HW267581   5.843   5.680   6.807
20912SOL     OW67582   5.606   6.889   6.887
20912SOL    HW167583   5.639   6.851   6.968
20912SOL    HW267584   5.633   6.981   6.891
20913SOL     OW67585   6.260   6.199   6.620
20913SOL    HW167586   6.347   6.197   6.579
20913SOL    HW267587   6.233   6.291   6.614
20914SOL     OW67588   7.254   6.587   7.419
20914SOL    HW167589   7.349   6.576   7.411
20914SOL    HW267590   7.241   6.681   7.411
20915SOL     OW67591   5.903   5.630   6.224
20915SOL    HW167592   5.869   5.719   6.234
20915SOL    HW267593   5.912   5.598   6.313
20916SOL     OW67594   7.147   5.908   5.983
20916SOL    HW167595   7.225   5.860   6.010
20916SOL    HW267596   7.161   5.997   6.015
20917SOL     OW67597   6.554   6.330   6.528
20917SOL    HW167598   6.557   6.343   6.623
20917SOL    HW267599   6.544   6.236   6.517
20918SOL     OW67600   6.580   7.105   7.289
20918SOL    HW167601   6.538   7.177   7.242
20918SOL    HW267602   6.662   7.090   7.241
20919SOL     OW67603   7.432   7.107   7.190
20919SOL    HW167604   7.471   7.135   7.107
20919SOL    HW267605   7.503   7.113   7.254
20920SOL     OW67606   5.956   6.441   7.458
20920SOL    HW167607   6.016   6.502   7.502
20920SOL    HW267608   6.006   6.410   7.382
20921SOL     OW67609   7.069   5.851   5.714
20921SOL    HW167610   7.024   5.770   5.738
20921SOL    HW267611   7.106   5.883   5.796
20922SOL     OW67612   6.843   6.401   5.605
20922SOL    HW167613   6.889   6.317   5.606
20922SOL    HW267614   6.881   6.449   5.531
20923SOL     OW67615   6.639   6.939   6.469
20923SOL    HW167616   6.654   6.871   6.403
20923SOL    HW267617   6.686   7.016   6.435
20924SOL     OW67618   5.869   6.427   6.505
20924SOL    HW167619   5.961   6.448   6.518
20924SOL    HW267620   5.860   6.338   6.538
20925SOL     OW67621   5.883   6.145   6.582
20925SOL    HW167622   5.846   6.056   6.574
20925SOL    HW267623   5.964   6.142   6.531
20926SOL     OW67624   6.732   5.954   7.272
20926SOL    HW167625   6.697   6.021   7.331
20926SOL    HW267626   6.824   5.978   7.261
20927SOL     OW67627   6.730   5.774   7.058
20927SOL    HW167628   6.731   5.839   7.129
20927SOL    HW267629   6.783   5.814   6.989
20928SOL     OW67630   5.596   6.886   5.796
20928SOL    HW167631   5.508   6.902   5.763
20928SOL    HW267632   5.590   6.804   5.845
20929SOL     OW67633   5.660   7.349   6.521
20929SOL    HW167634   5.652   7.280   6.455
20929SOL    HW267635   5.751   7.378   6.514
20930SOL     OW67636   6.076   7.159   6.501
20930SOL    HW167637   6.147   7.221   6.516
20930SOL    HW267638   6.110   7.099   6.435
20931SOL     OW67639   6.521   6.345   6.802
20931SOL    HW167640   6.598   6.362   6.856
20931SOL    HW267641   6.459   6.302   6.861
20932SOL     OW67642   5.631   6.160   6.718
20932SOL    HW167643   5.714   6.168   6.670
20932SOL    HW267644   5.656   6.172   6.810
20933SOL     OW67645   5.844   6.044   7.265
20933SOL    HW167646   5.920   6.023   7.210
20933SOL    HW267647   5.826   6.136   7.245
20934SOL     OW67648   6.990   6.526   7.260
20934SOL    HW167649   7.079   6.527   7.293
20934SOL    HW267650   6.996   6.486   7.173
20935SOL     OW67651   6.411   6.114   5.959
20935SOL    HW167652   6.435   6.058   5.885
20935SOL    HW267653   6.340   6.168   5.926
20936SOL     OW67654   7.252   6.182   6.746
20936SOL    HW167655   7.256   6.134   6.829
20936SOL    HW267656   7.341   6.180   6.712
20937SOL     OW67657   5.883   7.152   7.305
20937SOL    HW167658   5.863   7.224   7.365
20937SOL    HW267659   5.801   7.135   7.259
20938SOL     OW67660   6.293   6.016   6.822
20938SOL    HW167661   6.240   5.938   6.804
20938SOL    HW267662   6.275   6.075   6.749
20939SOL     OW67663   6.496   7.325   7.134
20939SOL    HW167664   6.467   7.382   7.062
20939SOL    HW267665   6.587   7.352   7.149
20940SOL     OW67666   6.005   6.085   5.793
20940SOL    HW167667   6.075   6.150   5.796
20940SOL    HW267668   5.978   6.074   5.885
20941SOL     OW67669   5.685   6.722   7.117
20941SOL    HW167670   5.697   6.665   7.193
20941SOL    HW267671   5.721   6.671   7.044
20942SOL     OW67672   6.842   6.595   6.818
20942SOL    HW167673   6.875   6.538   6.750
20942SOL    HW267674   6.775   6.649   6.775
20943SOL     OW67675   6.911   6.450   5.873
20943SOL    HW167676   6.840   6.416   5.927
20943SOL    HW267677   6.883   6.432   5.783
20944SOL     OW67678   7.293   7.304   6.676
20944SOL    HW167679   7.377   7.343   6.652
20944SOL    HW267680   7.306   7.210   6.663
20945SOL     OW67681   6.833   7.329   6.681
20945SOL    HW167682   6.913   7.371   6.647
20945SOL    HW267683   6.862   7.244   6.714
20946SOL     OW67684   5.666   6.863   6.614
20946SOL    HW167685   5.653   6.858   6.709
20946SOL    HW267686   5.601   6.926   6.584
20947SOL     OW67687   6.287   7.293   7.315
20947SOL    HW167688   6.237   7.374   7.329
20947SOL    HW267689   6.361   7.319   7.260
20948SOL     OW67690   7.354   5.753   6.074
20948SOL    HW167691   7.416   5.737   6.003
20948SOL    HW267692   7.335   5.666   6.109
20949SOL     OW67693   6.987   7.163   6.083
20949SOL    HW167694   7.037   7.202   6.012
20949SOL    HW267695   6.939   7.237   6.122
20950SOL     OW67696   5.786   7.363   7.453
20950SOL    HW167697   5.720   7.306   7.491
20950SOL    HW267698   5.811   7.422   7.524
20951SOL     OW67699   6.843   6.539   6.242
20951SOL    HW167700   6.916   6.491   6.283
20951SOL    HW267701   6.886   6.605   6.188
20952SOL     OW67702   6.439   6.904   7.003
20952SOL    HW167703   6.405   6.953   7.078
20952SOL    HW267704   6.420   6.960   6.927
20953SOL     OW67705   6.202   7.288   5.746
20953SOL    HW167706   6.243   7.285   5.660
20953SOL    HW267707   6.160   7.203   5.757
20954SOL     OW67708   7.128   7.317   6.898
20954SOL    HW167709   7.192   7.320   6.826
20954SOL    HW267710   7.136   7.403   6.939
20955SOL     OW67711   7.457   5.741   6.524
20955SOL    HW167712   7.493   5.655   6.503
20955SOL    HW267713   7.453   5.787   6.440
20956SOL     OW67714   5.820   5.890   6.277
20956SOL    HW167715   5.735   5.933   6.262
20956SOL    HW267716   5.834   5.899   6.372
20957SOL     OW67717   6.804   7.185   5.627
20957SOL    HW167718   6.802   7.092   5.650
20957SOL    HW267719   6.729   7.197   5.568
20958SOL     OW67720   6.405   6.635   6.943
20958SOL    HW167721   6.423   6.629   6.849
20958SOL    HW267722   6.413   6.728   6.963
20959SOL     OW67723   6.448   6.430   5.870
20959SOL    HW167724   6.496   6.471   5.798
20959SOL    HW267725   6.516   6.387   5.923
20960SOL     OW67726   7.086   7.197   5.611
20960SOL    HW167727   6.991   7.200   5.596
20960SOL    HW267728   7.124   7.206   5.523
20961SOL     OW67729   5.925   6.873   7.167
20961SOL    HW167730   5.931   6.928   7.089
20961SOL    HW267731   5.845   6.822   7.153
20962SOL     OW67732   7.190   6.889   6.852
20962SOL    HW167733   7.282   6.879   6.877
20962SOL    HW267734   7.155   6.952   6.915
20963SOL     OW67735   6.640   6.721   6.307
20963SOL    HW167736   6.572   6.666   6.346
20963SOL    HW267737   6.709   6.659   6.280
20964SOL     OW67738   6.637   5.837   6.554
20964SOL    HW167739   6.641   5.794   6.469
20964SOL    HW267740   6.629   5.765   6.617
20965SOL     OW67741   6.172   7.050   6.051
20965SOL    HW167742   6.236   6.999   6.002
20965SOL    HW267743   6.150   7.123   5.993
20966SOL     OW67744   7.341   5.989   6.960
20966SOL    HW167745   7.401   6.062   6.978
20966SOL    HW267746   7.400   5.916   6.940
20967SOL     OW67747   5.853   6.939   5.903
20967SOL    HW167748   5.761   6.930   5.876
20967SOL    HW267749   5.849   6.993   5.982
20968SOL     OW67750   5.716   6.551   7.332
20968SOL    HW167751   5.639   6.556   7.390
20968SOL    HW267752   5.790   6.549   7.392
20969SOL     OW67753   6.260   5.783   7.094
20969SOL    HW167754   6.341   5.761   7.049
20969SOL    HW267755   6.288   5.818   7.178
20970SOL     OW67756   5.693   5.902   5.648
20970SOL    HW167757   5.618   5.879   5.593
20970SOL    HW267758   5.717   5.991   5.620
20971SOL     OW67759   6.996   6.437   6.996
20971SOL    HW167760   6.934   6.484   6.939
20971SOL    HW267761   7.080   6.443   6.950
20972SOL     OW67762   5.658   5.725   5.862
20972SOL    HW167763   5.654   5.796   5.798
20972SOL    HW267764   5.744   5.686   5.848
20973SOL     OW67765   6.769   6.916   5.707
20973SOL    HW167766   6.675   6.902   5.707
20973SOL    HW267767   6.792   6.922   5.800
20974SOL     OW67768   6.217   6.445   7.022
20974SOL    HW167769   6.272   6.521   7.001
20974SOL    HW267770   6.276   6.370   7.012
20975SOL     OW67771   7.071   7.444   6.585
20975SOL    HW167772   7.106   7.494   6.511
20975SOL    HW267773   7.146   7.394   6.617
20976SOL     OW67774   6.287   6.159   7.266
20976SOL    HW167775   6.346   6.215   7.315
20976SOL    HW267776   6.303   6.071   7.301
20977SOL     OW67777   7.108   6.835   7.264
20977SOL    HW167778   7.135   6.881   7.343
20977SOL    HW267779   7.188   6.829   7.212
20978SOL     OW67780   5.983   7.370   7.145
20978SOL    HW167781   5.895   7.404   7.131
20978SOL    HW267782   5.970   7.285   7.186
20979SOL     OW67783   7.209   6.461   6.823
20979SOL    HW167784   7.235   6.381   6.777
20979SOL    HW267785   7.197   6.526   6.754
20980SOL     OW67786   6.767   5.911   6.052
20980SOL    HW167787   6.836   5.845   6.050
20980SOL    HW267788   6.784   5.960   6.133
20981SOL     OW67789   6.150   6.295   6.265
20981SOL    HW167790   6.195   6.379   6.271
20981SOL    HW267791   6.095   6.302   6.187
20982SOL     OW67792   7.383   5.946   7.306
20982SOL    HW167793   7.453   5.920   7.247
20982SOL    HW267794   7.316   5.879   7.294
20983SOL     OW67795   7.329   6.507   7.069
20983SOL    HW167796   7.403   6.568   7.067
20983SOL    HW267797   7.303   6.497   6.977
20984SOL     OW67798   6.470   6.937   5.664
20984SOL    HW167799   6.431   6.964   5.747
20984SOL    HW267800   6.487   7.018   5.617
20985SOL     OW67801   6.257   7.360   6.507
20985SOL    HW167802   6.231   7.452   6.494
20985SOL    HW267803   6.353   7.362   6.502
20986SOL     OW67804   6.446   6.567   6.439
20986SOL    HW167805   6.488   6.486   6.469
20986SOL    HW267806   6.409   6.605   6.519
20987SOL     OW67807   6.602   6.519   5.662
20987SOL    HW167808   6.598   6.597   5.607
20987SOL    HW267809   6.691   6.485   5.649
20988SOL     OW67810   7.431   7.098   6.390
20988SOL    HW167811   7.346   7.115   6.349
20988SOL    HW267812   7.410   7.072   6.480
20989SOL     OW67813   5.859   6.847   7.477
20989SOL    HW167814   5.763   6.856   7.475
20989SOL    HW267815   5.882   6.853   7.570
20990SOL     OW67816   5.680   6.811   6.198
20990SOL    HW167817   5.729   6.774   6.271
20990SOL    HW267818   5.723   6.895   6.180
20991SOL     OW67819   6.184   7.062   7.208
20991SOL    HW167820   6.180   7.083   7.115
20991SOL    HW267821   6.224   7.140   7.248
20992SOL     OW67822   7.445   5.735   6.886
20992SOL    HW167823   7.449   5.687   6.969
20992SOL    HW267824   7.536   5.759   6.868
20993SOL     OW67825   5.965   5.997   6.060
20993SOL    HW167826   6.013   5.920   6.029
20993SOL    HW267827   5.921   5.967   6.140
20994SOL     OW67828   7.328   7.031   6.642
20994SOL    HW167829   7.261   6.993   6.699
20994SOL    HW267830   7.409   6.988   6.669
20995SOL     OW67831   5.950   6.150   6.891
20995SOL    HW167832   5.998   6.088   6.947
20995SOL    HW267833   5.973   6.124   6.802
20996SOL     OW67834   6.415   7.156   6.274
20996SOL    HW167835   6.426   7.190   6.186
20996SOL    HW267836   6.332   7.108   6.272
20997SOL     OW67837   6.595   5.598   6.703
20997SOL    HW167838   6.551   5.541   6.640
20997SOL    HW267839   6.680   5.558   6.717
20998SOL     OW67840   6.366   6.898   5.930
20998SOL    HW167841   6.349   6.805   5.944
20998SOL    HW267842   6.447   6.914   5.977
20999SOL     OW67843   6.193   7.138   6.938
20999SOL    HW167844   6.186   7.234   6.934
20999SOL    HW267845   6.263   7.117   6.876
21000SOL     OW67846   6.954   5.611   5.786
21000SOL    HW167847   7.013   5.535   5.782
21000SOL    HW267848   6.866   5.574   5.777
21001SOL     OW67849   6.807   6.055   6.282
21001SOL    HW167850   6.767   6.142   6.282
21001SOL    HW267851   6.880   6.062   6.343
21002SOL     OW67852   7.161   5.852   6.562
21002SOL    HW167853   7.069   5.878   6.575
21002SOL    HW267854   7.188   5.898   6.483
21003SOL     OW67855   5.654   6.659   5.964
21003SOL    HW167856   5.738   6.646   5.921
21003SOL    HW267857   5.676   6.704   6.046
21004SOL     OW67858   6.487   7.260   6.025
21004SOL    HW167859   6.559   7.272   5.963
21004SOL    HW267860   6.447   7.347   6.031
21005SOL     OW67861   5.798   6.242   7.561
21005SOL    HW167862   5.757   6.280   7.639
21005SOL    HW267863   5.853   6.313   7.526
21006SOL     OW67864   5.843   5.800   8.456
21006SOL    HW167865   5.863   5.798   8.550
21006SOL    HW267866   5.749   5.783   8.451
21007SOL     OW67867   5.642   6.105   8.195
21007SOL    HW167868   5.553   6.077   8.217
21007SOL    HW267869   5.635   6.141   8.107
21008SOL     OW67870   6.195   6.876   8.575
21008SOL    HW167871   6.105   6.892   8.547
21008SOL    HW267872   6.214   6.948   8.635
21009SOL     OW67873   7.182   7.085   8.160
21009SOL    HW167874   7.118   7.077   8.231
21009SOL    HW267875   7.131   7.106   8.083
21010SOL     OW67876   6.670   6.315   8.144
21010SOL    HW167877   6.728   6.389   8.126
21010SOL    HW267878   6.645   6.326   8.236
21011SOL     OW67879   7.362   6.174   7.709
21011SOL    HW167880   7.331   6.165   7.619
21011SOL    HW267881   7.457   6.163   7.703
21012SOL     OW67882   6.355   6.668   8.500
21012SOL    HW167883   6.295   6.739   8.526
21012SOL    HW267884   6.442   6.702   8.521
21013SOL     OW67885   6.455   6.350   9.261
21013SOL    HW167886   6.483   6.412   9.329
21013SOL    HW267887   6.475   6.395   9.179
21014SOL     OW67888   6.247   6.563   8.090
21014SOL    HW167889   6.321   6.559   8.150
21014SOL    HW267890   6.188   6.627   8.130
21015SOL     OW67891   6.318   6.733   9.278
21015SOL    HW167892   6.365   6.802   9.326
21015SOL    HW267893   6.246   6.779   9.236
21016SOL     OW67894   5.946   6.967   8.497
21016SOL    HW167895   5.856   6.950   8.472
21016SOL    HW267896   5.972   7.044   8.445
21017SOL     OW67897   7.022   7.108   8.804
21017SOL    HW167898   7.079   7.184   8.818
21017SOL    HW267899   6.953   7.118   8.869
21018SOL     OW67900   6.001   5.898   8.973
21018SOL    HW167901   6.093   5.878   8.956
21018SOL    HW267902   5.998   5.917   9.067
21019SOL     OW67903   7.217   6.025   8.208
21019SOL    HW167904   7.212   6.070   8.124
21019SOL    HW267905   7.253   6.090   8.268
21020SOL     OW67906   5.816   7.308   7.903
21020SOL    HW167907   5.835   7.368   7.975
21020SOL    HW267908   5.888   7.322   7.841
21021SOL     OW67909   6.710   6.930   9.134
21021SOL    HW167910   6.750   6.915   9.220
21021SOL    HW267911   6.662   6.850   9.115
21022SOL     OW67912   5.770   7.046   7.982
21022SOL    HW167913   5.785   7.139   7.965
21022SOL    HW267914   5.713   7.044   8.059
21023SOL     OW67915   5.805   6.669   8.356
21023SOL    HW167916   5.808   6.612   8.433
21023SOL    HW267917   5.774   6.753   8.389
21024SOL     OW67918   6.217   7.331   8.865
21024SOL    HW167919   6.205   7.309   8.958
21024SOL    HW267920   6.231   7.426   8.866
21025SOL     OW67921   6.123   6.621   7.590
21025SOL    HW167922   6.151   6.688   7.528
21025SOL    HW267923   6.188   6.624   7.660
21026SOL     OW67924   7.147   5.777   8.878
21026SOL    HW167925   7.219   5.839   8.865
21026SOL    HW267926   7.110   5.801   8.963
21027SOL     OW67927   7.427   7.322   7.802
21027SOL    HW167928   7.511   7.292   7.835
21027SOL    HW267929   7.447   7.402   7.753
21028SOL     OW67930   5.612   7.170   7.545
21028SOL    HW167931   5.618   7.079   7.574
21028SOL    HW267932   5.593   7.220   7.625
21029SOL     OW67933   7.282   6.407   8.098
21029SOL    HW167934   7.358   6.428   8.151
21029SOL    HW267935   7.307   6.434   8.009
21030SOL     OW67936   7.216   6.684   7.870
21030SOL    HW167937   7.304   6.678   7.833
21030SOL    HW267938   7.228   6.727   7.955
21031SOL     OW67939   5.776   6.319   9.036
21031SOL    HW167940   5.869   6.326   9.054
21031SOL    HW267941   5.738   6.398   9.074
21032SOL     OW67942   6.210   6.976   8.229
21032SOL    HW167943   6.161   6.894   8.220
21032SOL    HW267944   6.155   7.031   8.285
21033SOL     OW67945   6.857   6.818   8.856
21033SOL    HW167946   6.880   6.745   8.798
21033SOL    HW267947   6.914   6.806   8.933
21034SOL     OW67948   6.423   5.604   7.964
21034SOL    HW167949   6.467   5.680   7.927
21034SOL    HW267950   6.331   5.629   7.968
21035SOL     OW67951   5.778   6.501   8.574
21035SOL    HW167952   5.836   6.478   8.647
21035SOL    HW267953   5.690   6.495   8.611
21036SOL     OW67954   7.084   6.571   7.642
21036SOL    HW167955   7.152   6.560   7.577
21036SOL    HW267956   7.130   6.600   7.721
21037SOL     OW67957   6.726   7.445   9.061
21037SOL    HW167958   6.770   7.516   9.014
21037SOL    HW267959   6.793   7.376   9.067
21038SOL     OW67960   6.056   5.903   9.243
21038SOL    HW167961   6.149   5.889   9.258
21038SOL    HW267962   6.029   5.962   9.313
21039SOL     OW67963   6.960   7.015   8.330
21039SOL    HW167964   6.930   7.031   8.419
21039SOL    HW267965   6.990   6.924   8.330
21040SOL     OW67966   7.256   7.384   8.010
21040SOL    HW167967   7.312   7.344   7.944
21040SOL    HW267968   7.256   7.321   8.083
21041SOL     OW67969   6.202   6.281   7.690
21041SOL    HW167970   6.241   6.368   7.683
21041SOL    HW267971   6.132   6.291   7.755
21042SOL     OW67972   6.892   5.976   8.389
21042SOL    HW167973   6.806   5.935   8.385
21042SOL    HW267974   6.941   5.924   8.453
21043SOL     OW67975   7.156   7.267   7.729
21043SOL    HW167976   7.251   7.277   7.744
21043SOL    HW267977   7.150   7.227   7.642
21044SOL     OW67978   6.336   6.196   8.884
21044SOL    HW167979   6.329   6.173   8.976
21044SOL    HW267980   6.292   6.124   8.838
21045SOL     OW67981   7.046   6.157   9.145
21045SOL    HW167982   7.020   6.180   9.234
21045SOL    HW267983   7.073   6.065   9.150
21046SOL     OW67984   6.532   6.456   9.019
21046SOL    HW167985   6.580   6.378   8.992
21046SOL    HW267986   6.496   6.492   8.938
21047SOL     OW67987   6.594   5.989   8.817
21047SOL    HW167988   6.592   6.072   8.866
21047SOL    HW267989   6.577   5.922   8.883
21048SOL     OW67990   5.671   6.438   8.254
21048SOL    HW167991   5.731   6.510   8.270
21048SOL    HW267992   5.585   6.479   8.246
21049SOL     OW67993   6.538   5.943   7.616
21049SOL    HW167994   6.580   6.017   7.573
21049SOL    HW267995   6.553   5.869   7.558
21050SOL     OW67996   7.352   6.238   9.220
21050SOL    HW167997   7.448   6.239   9.220
21050SOL    HW267998   7.329   6.151   9.189
21051SOL     OW67999   6.942   6.683   7.906
21051SOL    HW168000   7.036   6.687   7.893
21051SOL    HW268001   6.912   6.773   7.897
21052SOL     OW68002   6.156   5.785   8.347
21052SOL    HW168003   6.160   5.791   8.442
21052SOL    HW268004   6.158   5.876   8.317
21053SOL     OW68005   6.596   7.045   7.924
21053SOL    HW168006   6.552   7.127   7.901
21053SOL    HW268007   6.630   7.060   8.012
21054SOL     OW68008   5.921   7.464   8.392
21054SOL    HW168009   5.984   7.393   8.402
21054SOL    HW268010   5.974   7.543   8.387
21055SOL     OW68011   7.406   6.682   8.397
21055SOL    HW168012   7.411   6.613   8.330
21055SOL    HW268013   7.327   6.661   8.447
21056SOL     OW68014   6.798   7.139   8.963
21056SOL    HW168015   6.783   7.063   9.020
21056SOL    HW268016   6.710   7.173   8.946
21057SOL     OW68017   5.902   6.589   7.757
21057SOL    HW168018   5.974   6.607   7.696
21057SOL    HW268019   5.920   6.502   7.790
21058SOL     OW68020   7.037   6.329   8.183
21058SOL    HW168021   7.046   6.307   8.276
21058SOL    HW268022   7.124   6.360   8.157
21059SOL     OW68023   6.096   6.862   9.177
21059SOL    HW168024   6.018   6.826   9.134
21059SOL    HW268025   6.066   6.884   9.266
21060SOL     OW68026   6.701   7.327   7.713
21060SOL    HW168027   6.774   7.386   7.728
21060SOL    HW268028   6.725   7.277   7.635
21061SOL     OW68029   5.736   5.812   9.019
21061SOL    HW168030   5.696   5.887   9.063
21061SOL    HW268031   5.828   5.835   9.010
21062SOL     OW68032   7.197   6.959   7.492
21062SOL    HW168033   7.278   7.011   7.490
21062SOL    HW268034   7.128   7.023   7.509
21063SOL     OW68035   6.092   7.314   7.705
21063SOL    HW168036   6.096   7.365   7.786
21063SOL    HW268037   6.148   7.361   7.643
21064SOL     OW68038   6.986   5.684   7.915
21064SOL    HW168039   6.977   5.674   7.821
21064SOL    HW268040   7.081   5.689   7.930
21065SOL     OW68041   5.835   7.375   8.680
21065SOL    HW168042   5.834   7.381   8.776
21065SOL    HW268043   5.928   7.374   8.658
21066SOL     OW68044   6.479   7.299   8.342
21066SOL    HW168045   6.517   7.345   8.418
21066SOL    HW268046   6.477   7.207   8.368
21067SOL     OW68047   5.996   6.273   7.874
21067SOL    HW168048   5.953   6.189   7.888
21067SOL    HW268049   6.049   6.287   7.953
21068SOL     OW68050   7.049   5.860   9.137
21068SOL    HW168051   7.058   5.853   9.232
21068SOL    HW268052   6.955   5.859   9.122
21069SOL     OW68053   6.236   5.718   7.564
21069SOL    HW168054   6.307   5.659   7.590
21069SOL    HW268055   6.189   5.669   7.496
21070SOL     OW68056   6.478   7.144   8.626
21070SOL    HW168057   6.473   7.091   8.547
21070SOL    HW268058   6.540   7.098   8.683
21071SOL     OW68059   6.930   6.183   8.896
21071SOL    HW168060   6.974   6.172   8.980
21071SOL    HW268061   6.950   6.272   8.869
21072SOL     OW68062   6.439   7.029   8.381
21072SOL    HW168063   6.511   6.971   8.355
21072SOL    HW268064   6.361   6.991   8.339
21073SOL     OW68065   6.522   6.093   8.328
21073SOL    HW168066   6.506   6.084   8.234
21073SOL    HW268067   6.563   6.011   8.354
21074SOL     OW68068   6.153   5.662   7.943
21074SOL    HW168069   6.081   5.654   8.006
21074SOL    HW268070   6.135   5.744   7.896
21075SOL     OW68071   6.897   6.719   7.498
21075SOL    HW168072   6.959   6.676   7.556
21075SOL    HW268073   6.859   6.790   7.551
21076SOL     OW68074   5.856   5.667   7.618
21076SOL    HW168075   5.906   5.732   7.568
21076SOL    HW268076   5.923   5.613   7.660
21077SOL     OW68077   6.561   5.822   7.873
21077SOL    HW168078   6.554   5.864   7.787
21077SOL    HW268079   6.651   5.836   7.900
21078SOL     OW68080   6.665   6.218   8.963
21078SOL    HW168081   6.657   6.190   9.054
21078SOL    HW268082   6.758   6.207   8.942
21079SOL     OW68083   6.765   7.100   8.151
21079SOL    HW168084   6.788   7.187   8.119
21079SOL    HW268085   6.839   7.075   8.207
21080SOL     OW68086   6.049   6.738   8.197
21080SOL    HW168087   5.988   6.712   8.266
21080SOL    HW268088   5.993   6.747   8.119
21081SOL     OW68089   6.841   7.354   8.056
21081SOL    HW168090   6.892   7.424   8.017
21081SOL    HW268091   6.770   7.398   8.104
21082SOL     OW68092   6.647   6.148   7.454
21082SOL    HW168093   6.581   6.210   7.423
21082SOL    HW268094   6.724   6.202   7.474
21083SOL     OW68095   5.681   6.176   8.820
21083SOL    HW168096   5.770   6.143   8.816
21083SOL    HW268097   5.680   6.233   8.897
21084SOL     OW68098   6.147   5.767   8.626
21084SOL    HW168099   6.185   5.702   8.685
21084SOL    HW268100   6.059   5.782   8.660
21085SOL     OW68101   6.504   6.040   8.045
21085SOL    HW168102   6.450   6.073   7.974
21085SOL    HW268103   6.509   5.946   8.029
21086SOL     OW68104   6.609   5.630   8.172
21086SOL    HW168105   6.546   5.621   8.100
21086SOL    HW268106   6.574   5.575   8.242
21087SOL     OW68107   7.052   6.753   8.310
21087SOL    HW168108   7.004   6.675   8.281
21087SOL    HW268109   7.122   6.763   8.245
21088SOL     OW68110   7.024   6.221   8.437
21088SOL    HW168111   6.979   6.137   8.433
21088SOL    HW268112   7.091   6.209   8.506
21089SOL     OW68113   7.405   6.400   7.854
21089SOL    HW168114   7.487   6.368   7.890
21089SOL    HW268115   7.379   6.334   7.790
21090SOL     OW68116   6.053   7.068   7.577
21090SOL    HW168117   5.993   7.025   7.637
21090SOL    HW268118   6.066   7.155   7.614
21091SOL     OW68119   7.246   6.812   8.117
21091SOL    HW168120   7.340   6.797   8.127
21091SOL    HW268121   7.236   6.907   8.124
21092SOL     OW68122   7.008   6.143   7.521
21092SOL    HW168123   7.005   6.051   7.548
21092SOL    HW268124   7.101   6.162   7.514
21093SOL     OW68125   6.094   5.862   7.759
21093SOL    HW168126   6.150   5.812   7.700
21093SOL    HW268127   6.077   5.944   7.714
21094SOL     OW68128   7.304   6.823   8.977
21094SOL    HW168129   7.392   6.798   8.948
21094SOL    HW268130   7.318   6.907   9.022
21095SOL     OW68131   6.646   6.946   8.747
21095SOL    HW168132   6.571   6.925   8.803
21095SOL    HW268133   6.722   6.915   8.796
21096SOL     OW68134   7.167   7.231   9.096
21096SOL    HW168135   7.168   7.270   9.009
21096SOL    HW268136   7.243   7.172   9.098
21097SOL     OW68137   6.612   6.757   8.550
21097SOL    HW168138   6.624   6.826   8.615
21097SOL    HW268139   6.640   6.797   8.468
21098SOL     OW68140   7.172   6.669   8.549
21098SOL    HW168141   7.167   6.737   8.616
21098SOL    HW268142   7.120   6.703   8.476
21099SOL     OW68143   6.523   5.633   8.797
21099SOL    HW168144   6.618   5.636   8.790
21099SOL    HW268145   6.501   5.699   8.862
21100SOL     OW68146   6.540   6.714   9.116
21100SOL    HW168147   6.466   6.711   9.178
21100SOL    HW268148   6.554   6.623   9.091
21101SOL     OW68149   6.295   6.601   7.806
21101SOL    HW168150   6.279   6.600   7.900
21101SOL    HW268151   6.384   6.568   7.796
21102SOL     OW68152   5.983   6.387   8.722
21102SOL    HW168153   6.048   6.417   8.785
21102SOL    HW268154   5.960   6.298   8.751
21103SOL     OW68155   6.853   5.978   8.727
21103SOL    HW168156   6.890   6.047   8.781
21103SOL    HW268157   6.758   5.984   8.743
21104SOL     OW68158   5.676   7.126   8.728
21104SOL    HW168159   5.672   7.217   8.697
21104SOL    HW268160   5.769   7.110   8.743
21105SOL     OW68161   5.882   6.763   7.976
21105SOL    HW168162   5.876   6.853   7.946
21105SOL    HW268163   5.897   6.712   7.896
21106SOL     OW68164   6.136   6.072   8.273
21106SOL    HW168165   6.142   6.137   8.203
21106SOL    HW268166   6.192   6.105   8.343
21107SOL     OW68167   6.859   6.945   7.872
21107SOL    HW168168   6.921   7.012   7.901
21107SOL    HW268169   6.774   6.974   7.907
21108SOL     OW68170   6.861   7.052   8.591
21108SOL    HW168171   6.926   7.063   8.659
21108SOL    HW268172   6.785   7.015   8.636
21109SOL     OW68173   7.233   6.162   7.962
21109SOL    HW168174   7.249   6.246   8.005
21109SOL    HW268175   7.287   6.165   7.883
21110SOL     OW68176   5.944   7.062   8.757
21110SOL    HW168177   5.952   7.021   8.671
21110SOL    HW268178   6.027   7.109   8.769
21111SOL     OW68179   6.053   6.331   9.089
21111SOL    HW168180   6.105   6.378   9.023
21111SOL    HW268181   6.113   6.266   9.126
21112SOL     OW68182   6.084   5.611   9.158
21112SOL    HW168183   6.012   5.658   9.198
21112SOL    HW268184   6.163   5.659   9.185
21113SOL     OW68185   6.198   6.436   8.514
21113SOL    HW168186   6.250   6.516   8.512
21113SOL    HW268187   6.149   6.440   8.596
21114SOL     OW68188   6.867   6.450   8.441
21114SOL    HW168189   6.780   6.411   8.433
21114SOL    HW268190   6.926   6.374   8.445
21115SOL     OW68191   6.806   6.203   7.811
21115SOL    HW168192   6.877   6.163   7.761
21115SOL    HW268193   6.812   6.296   7.792
21116SOL     OW68194   5.887   5.791   8.728
21116SOL    HW168195   5.907   5.840   8.807
21116SOL    HW268196   5.872   5.701   8.758
21117SOL     OW68197   5.573   6.862   8.698
21117SOL    HW168198   5.595   6.803   8.770
21117SOL    HW268199   5.599   6.949   8.730
21118SOL     OW68200   6.288   6.175   8.472
21118SOL    HW168201   6.379   6.168   8.442
21118SOL    HW268202   6.275   6.269   8.487
21119SOL     OW68203   7.264   6.622   9.295
21119SOL    HW168204   7.288   6.714   9.283
21119SOL    HW268205   7.222   6.620   9.381
21120SOL     OW68206   5.910   5.635   8.082
21120SOL    HW168207   5.871   5.720   8.101
21120SOL    HW268208   5.922   5.594   8.168
21121SOL     OW68209   7.137   5.940   7.824
21121SOL    HW168210   7.194   5.872   7.860
21121SOL    HW268211   7.161   6.020   7.872
21122SOL     OW68212   6.602   6.336   8.428
21122SOL    HW168213   6.587   6.341   8.523
21122SOL    HW268214   6.585   6.245   8.406
21123SOL     OW68215   6.549   7.145   9.196
21123SOL    HW168216   6.530   7.192   9.115
21123SOL    HW268217   6.591   7.063   9.167
21124SOL     OW68218   7.391   7.068   9.071
21124SOL    HW168219   7.444   7.106   9.001
21124SOL    HW268220   7.446   7.071   9.149
21125SOL     OW68221   5.924   6.522   9.250
21125SOL    HW168222   5.987   6.556   9.314
21125SOL    HW268223   5.973   6.456   9.202
21126SOL     OW68224   7.047   5.875   7.577
21126SOL    HW168225   7.010   5.789   7.597
21126SOL    HW268226   7.087   5.903   7.659
21127SOL     OW68227   6.853   6.360   7.452
21127SOL    HW168228   6.917   6.295   7.481
21127SOL    HW268229   6.902   6.416   7.392
21128SOL     OW68230   6.654   6.884   8.303
21128SOL    HW168231   6.649   6.814   8.238
21128SOL    HW268232   6.701   6.955   8.258
21129SOL     OW68233   5.949   6.372   8.400
21129SOL    HW168234   6.043   6.383   8.415
21129SOL    HW268235   5.907   6.421   8.471
21130SOL     OW68236   5.893   6.062   8.399
21130SOL    HW168237   5.890   5.971   8.429
21130SOL    HW268238   5.980   6.072   8.362
21131SOL     OW68239   6.786   5.710   8.780
21131SOL    HW168240   6.770   5.717   8.874
21131SOL    HW268241   6.825   5.794   8.756
21132SOL     OW68242   5.606   6.889   7.618
21132SOL    HW168243   5.514   6.916   7.615
21132SOL    HW268244   5.604   6.800   7.651
21133SOL     OW68245   6.099   7.176   8.397
21133SOL    HW168246   6.141   7.251   8.356
21133SOL    HW268247   6.136   7.172   8.485
21134SOL     OW68248   6.539   6.303   8.702
21134SOL    HW168249   6.612   6.289   8.763
21134SOL    HW268250   6.462   6.272   8.749
21135SOL     OW68251   5.679   6.170   8.551
21135SOL    HW168252   5.752   6.108   8.546
21135SOL    HW268253   5.669   6.188   8.644
21136SOL     OW68254   5.751   6.064   9.146
21136SOL    HW168255   5.751   6.080   9.240
21136SOL    HW268256   5.753   6.151   9.106
21137SOL     OW68257   7.017   6.495   9.107
21137SOL    HW168258   7.019   6.590   9.101
21137SOL    HW268259   6.992   6.465   9.020
21138SOL     OW68260   6.384   6.101   7.808
21138SOL    HW168261   6.427   6.052   7.737
21138SOL    HW268262   6.329   6.164   7.762
21139SOL     OW68263   7.221   6.179   8.625
21139SOL    HW168264   7.225   6.127   8.705
21139SOL    HW268265   7.310   6.176   8.590
21140SOL     OW68266   5.842   7.155   9.127
21140SOL    HW168267   5.924   7.187   9.166
21140SOL    HW268268   5.819   7.079   9.181
21141SOL     OW68269   6.192   6.039   8.692
21141SOL    HW168270   6.205   5.947   8.671
21141SOL    HW268271   6.230   6.087   8.618
21142SOL     OW68272   6.544   7.265   8.944
21142SOL    HW168273   6.464   7.292   8.900
21142SOL    HW268274   6.586   7.347   8.970
21143SOL     OW68275   6.038   6.078   7.594
21143SOL    HW168276   6.108   6.140   7.612
21143SOL    HW268277   5.958   6.130   7.596
21144SOL     OW68278   5.672   6.712   8.920
21144SOL    HW168279   5.685   6.647   8.990
21144SOL    HW268280   5.750   6.768   8.925
21145SOL     OW68281   6.839   6.613   8.660
21145SOL    HW168282   6.869   6.565   8.583
21145SOL    HW268283   6.760   6.659   8.630
21146SOL     OW68284   6.839   6.471   7.760
21146SOL    HW168285   6.862   6.541   7.821
21146SOL    HW268286   6.905   6.477   7.690
21147SOL     OW68287   7.312   7.370   8.527
21147SOL    HW168288   7.392   7.359   8.475
21147SOL    HW268289   7.288   7.280   8.551
21148SOL     OW68290   6.824   7.322   8.542
21148SOL    HW168291   6.913   7.356   8.548
21148SOL    HW268292   6.834   7.227   8.553
21149SOL     OW68293   5.684   6.892   8.450
21149SOL    HW168294   5.653   6.869   8.538
21149SOL    HW268295   5.623   6.960   8.421
21150SOL     OW68296   6.208   7.271   9.141
21150SOL    HW168297   6.161   7.354   9.147
21150SOL    HW268298   6.258   7.265   9.222
21151SOL     OW68299   7.266   5.691   7.900
21151SOL    HW168300   7.330   5.689   7.830
21151SOL    HW268301   7.310   5.735   7.973
21152SOL     OW68302   7.016   7.161   7.948
21152SOL    HW168303   7.066   7.199   7.876
21152SOL    HW268304   6.961   7.232   7.979
21153SOL     OW68305   6.850   6.513   8.098
21153SOL    HW168306   6.921   6.457   8.128
21153SOL    HW268307   6.891   6.572   8.035
21154SOL     OW68308   6.438   6.857   8.901
21154SOL    HW168309   6.473   6.819   8.982
21154SOL    HW268310   6.370   6.918   8.931
21155SOL     OW68311   6.334   7.176   7.565
21155SOL    HW168312   6.330   7.218   7.479
21155SOL    HW268313   6.260   7.114   7.564
21156SOL     OW68314   7.186   7.334   8.840
21156SOL    HW168315   7.263   7.318   8.786
21156SOL    HW268316   7.188   7.428   8.857
21157SOL     OW68317   7.418   5.737   8.412
21157SOL    HW168318   7.450   5.650   8.388
21157SOL    HW268319   7.332   5.744   8.370
21158SOL     OW68320   5.818   5.879   8.171
21158SOL    HW168321   5.758   5.953   8.183
21158SOL    HW268322   5.847   5.856   8.259
21159SOL     OW68323   6.768   7.172   7.489
21159SOL    HW168324   6.772   7.086   7.531
21159SOL    HW268325   6.698   7.164   7.425
21160SOL     OW68326   6.420   6.596   8.806
21160SOL    HW168327   6.467   6.595   8.723
21160SOL    HW268328   6.419   6.688   8.832
21161SOL     OW68329   6.544   6.498   7.758
21161SOL    HW168330   6.567   6.510   7.666
21161SOL    HW268331   6.627   6.486   7.803
21162SOL     OW68332   7.047   7.193   7.482
21162SOL    HW168333   6.953   7.194   7.464
21162SOL    HW268334   7.087   7.207   7.396
21163SOL     OW68335   5.873   6.887   8.962
21163SOL    HW168336   5.907   6.952   8.899
21163SOL    HW268337   5.853   6.939   9.040
21164SOL     OW68338   7.152   6.869   8.742
21164SOL    HW168339   7.207   6.850   8.818
21164SOL    HW268340   7.092   6.937   8.773
21165SOL     OW68341   6.628   6.676   8.130
21165SOL    HW168342   6.565   6.618   8.174
21165SOL    HW268343   6.706   6.622   8.117
21166SOL     OW68344   6.646   5.844   8.353
21166SOL    HW168345   6.646   5.784   8.278
21166SOL    HW268346   6.634   5.787   8.429
21167SOL     OW68347   7.345   5.994   8.860
21167SOL    HW168348   7.413   6.062   8.859
21167SOL    HW268349   7.376   5.929   8.797
21168SOL     OW68350   5.847   6.956   7.737
21168SOL    HW168351   5.759   6.940   7.701
21168SOL    HW268352   5.831   6.997   7.821
21169SOL     OW68353   5.668   6.554   9.145
21169SOL    HW168354   5.597   6.547   9.210
21169SOL    HW268355   5.748   6.558   9.198
21170SOL     OW68356   6.268   5.819   8.977
21170SOL    HW168357   6.361   5.837   8.964
21170SOL    HW268358   6.259   5.807   9.072
21171SOL     OW68359   6.973   6.447   8.838
21171SOL    HW168360   6.920   6.506   8.785
21171SOL    HW268361   7.061   6.453   8.800
21172SOL     OW68362   5.656   5.732   7.797
21172SOL    HW168363   5.700   5.793   7.855
21172SOL    HW268364   5.721   5.711   7.730
21173SOL     OW68365   6.760   6.927   7.619
21173SOL    HW168366   6.670   6.906   7.644
21173SOL    HW268367   6.806   6.937   7.702
21174SOL     OW68368   6.205   6.435   8.875
21174SOL    HW168369   6.269   6.504   8.860
21174SOL    HW268370   6.257   6.354   8.878
21175SOL     OW68371   6.279   6.161   9.162
21175SOL    HW168372   6.333   6.228   9.205
21175SOL    HW268373   6.291   6.083   9.215
21176SOL     OW68374   7.036   6.766   9.068
21176SOL    HW168375   7.018   6.785   9.160
21176SOL    HW268376   7.126   6.796   9.054
21177SOL     OW68377   5.876   7.375   8.949
21177SOL    HW168378   5.932   7.435   8.998
21177SOL    HW268379   5.853   7.307   9.012
21178SOL     OW68380   7.217   6.453   8.715
21178SOL    HW168381   7.232   6.370   8.669
21178SOL    HW268382   7.212   6.519   8.646
21179SOL     OW68383   6.813   5.898   7.967
21179SOL    HW168384   6.868   5.825   7.940
21179SOL    HW268385   6.866   5.948   8.029
21180SOL     OW68386   6.184   6.290   8.081
21180SOL    HW168387   6.273   6.264   8.056
21180SOL    HW268388   6.190   6.384   8.095
21181SOL     OW68389   7.314   5.975   9.144
21181SOL    HW168390   7.339   5.977   9.051
21181SOL    HW268391   7.241   5.914   9.148
21182SOL     OW68392   7.286   6.532   8.971
21182SOL    HW168393   7.295   6.627   8.966
21182SOL    HW268394   7.279   6.504   8.879
21183SOL     OW68395   6.464   6.891   7.427
21183SOL    HW168396   6.477   6.900   7.521
21183SOL    HW268397   6.498   6.972   7.390
21184SOL     OW68398   6.217   7.407   8.313
21184SOL    HW168399   6.200   7.500   8.329
21184SOL    HW268400   6.310   7.396   8.336
21185SOL     OW68401   6.449   6.527   8.284
21185SOL    HW168402   6.501   6.463   8.332
21185SOL    HW268403   6.410   6.582   8.353
21186SOL     OW68404   6.637   6.523   7.501
21186SOL    HW168405   6.665   6.607   7.467
21186SOL    HW268406   6.715   6.468   7.497
21187SOL     OW68407   7.461   7.107   8.229
21187SOL    HW168408   7.367   7.096   8.211
21187SOL    HW268409   7.480   7.042   8.297
21188SOL     OW68410   5.796   6.919   9.250
21188SOL    HW168411   5.715   6.882   9.284
21188SOL    HW268412   5.859   6.907   9.321
21189SOL     OW68413   5.654   6.744   8.131
21189SOL    HW168414   5.698   6.729   8.214
21189SOL    HW268415   5.726   6.753   8.067
21190SOL     OW68416   6.248   7.021   9.012
21190SOL    HW168417   6.193   6.966   9.068
21190SOL    HW268418   6.242   7.108   9.051
21191SOL     OW68419   7.418   5.803   8.682
21191SOL    HW168420   7.512   5.792   8.699
21191SOL    HW268421   7.409   5.783   8.589
21192SOL     OW68422   5.914   6.007   7.932
21192SOL    HW168423   5.980   5.951   7.891
21192SOL    HW268424   5.898   5.966   8.017
21193SOL     OW68425   7.272   7.107   8.603
21193SOL    HW168426   7.202   7.049   8.633
21193SOL    HW268427   7.352   7.060   8.624
21194SOL     OW68428   5.950   6.114   8.798
21194SOL    HW168429   5.956   6.065   8.880
21194SOL    HW268430   6.032   6.095   8.753
21195SOL     OW68431   6.348   7.196   8.113
21195SOL    HW168432   6.396   7.220   8.193
21195SOL    HW268433   6.306   7.113   8.133
21196SOL     OW68434   7.045   5.846   8.586
21196SOL    HW168435   7.103   5.805   8.650
21196SOL    HW268436   6.983   5.897   8.639
21197SOL     OW68437   6.627   5.644   8.544
21197SOL    HW168438   6.566   5.651   8.617
21197SOL    HW268439   6.714   5.645   8.585
21198SOL     OW68440   6.502   6.884   7.712
21198SOL    HW168441   6.452   6.812   7.751
21198SOL    HW268442   6.526   6.939   7.786
21199SOL     OW68443   6.206   7.167   8.653
21199SOL    HW168444   6.198   7.226   8.728
21199SOL    HW268445   6.301   7.156   8.642
21200SOL     OW68446   6.970   5.622   7.647
21200SOL    HW168447   7.039   5.558   7.666
21200SOL    HW268448   6.890   5.570   7.640
21201SOL     OW68449   6.903   6.091   8.140
21201SOL    HW168450   6.959   6.168   8.144
21201SOL    HW268451   6.911   6.050   8.226
21202SOL     OW68452   7.150   5.774   8.337
21202SOL    HW168453   7.117   5.807   8.421
21202SOL    HW268454   7.162   5.853   8.284
21203SOL     OW68455   5.629   6.641   7.739
21203SOL    HW168456   5.724   6.638   7.754
21203SOL    HW268457   5.606   6.551   7.714
21204SOL     OW68458   6.447   7.277   7.798
21204SOL    HW168459   6.408   7.239   7.719
21204SOL    HW268460   6.535   7.303   7.771
21205SOL     OW68461   5.750   6.164   9.416
21205SOL    HW168462   5.750   6.253   9.452
21205SOL    HW268463   5.669   6.126   9.449
21206SOL     OW68464   7.357   6.174   9.500
21206SOL    HW168465   7.324   6.188   9.411
21206SOL    HW268466   7.293   6.114   9.539
21207SOL     OW68467   5.741   7.070   9.849
21207SOL    HW168468   5.771   7.138   9.789
21207SOL    HW268469   5.706   7.118   9.924
21208SOL     OW68470   6.125   6.594   9.431
21208SOL    HW168471   6.195   6.628   9.375
21208SOL    HW268472   6.163   6.592   9.519
21209SOL     OW68473   5.685   6.289   9.885
21209SOL    HW168474   5.610   6.229   9.892
21209SOL    HW268475   5.663   6.362   9.942
21210SOL     OW68476   7.419   7.337   9.608
21210SOL    HW168477   7.491   7.319   9.669
21210SOL    HW268478   7.434   7.427   9.580
21211SOL     OW68479   7.289   6.429   9.883
21211SOL    HW168480   7.340   6.464   9.956
21211SOL    HW268481   7.282   6.502   9.822
21212SOL     OW68482   7.312   6.661   9.725
21212SOL    HW168483   7.380   6.664   9.658
21212SOL    HW268484   7.353   6.700   9.803
21213SOL     OW68485   6.246   6.852   9.942
21213SOL    HW168486   6.188   6.868   0.017
21213SOL    HW268487   6.212   6.910   9.873
21214SOL     OW68488   6.382   5.644   9.691
21214SOL    HW168489   6.431   5.723   9.714
21214SOL    HW268490   6.308   5.643   9.752
21215SOL     OW68491   7.121   6.623   9.527
21215SOL    HW168492   7.060   6.558   9.561
21215SOL    HW268493   7.174   6.647   9.603
21216SOL     OW68494   6.162   6.259   9.593
21216SOL    HW168495   6.210   6.342   9.596
21216SOL    HW268496   6.094   6.269   9.660
21217SOL     OW68497   7.142   7.279   9.586
21217SOL    HW168498   7.235   7.292   9.600
21217SOL    HW268499   7.136   7.230   9.503
21218SOL     OW68500   6.588   6.217   9.691
21218SOL    HW168501   6.603   6.195   9.783
21218SOL    HW268502   6.510   6.166   9.667
21219SOL     OW68503   5.606   6.457   0.098
21219SOL    HW168504   5.675   6.451   0.164
21219SOL    HW268505   5.615   6.546   0.062
21220SOL     OW68506   6.892   6.683   9.765
21220SOL    HW168507   6.925   6.705   9.852
21220SOL    HW268508   6.869   6.767   9.726
21221SOL     OW68509   6.572   7.018   9.761
21221SOL    HW168510   6.546   7.106   9.732
21221SOL    HW268511   6.552   7.017   9.855
21222SOL     OW68512   5.999   7.357   0.141
21222SOL    HW168513   6.006   7.322   0.230
21222SOL    HW268514   6.068   7.423   0.135
21223SOL     OW68515   5.900   6.554   9.598
21223SOL    HW168516   5.974   6.557   9.538
21223SOL    HW268517   5.861   6.468   9.585
21224SOL     OW68518   6.734   7.357   9.542
21224SOL    HW168519   6.647   7.331   9.574
21224SOL    HW268520   6.754   7.294   9.473
21225SOL     OW68521   7.208   6.917   9.329
21225SOL    HW168522   7.183   7.010   9.333
21225SOL    HW268523   7.126   6.870   9.340
21226SOL     OW68524   7.009   5.749   9.741
21226SOL    HW168525   7.019   5.695   9.663
21226SOL    HW268526   7.098   5.773   9.766
21227SOL     OW68527   5.954   6.257   9.784
21227SOL    HW168528   5.971   6.166   9.811
21227SOL    HW268529   5.864   6.273   9.811
21228SOL     OW68530   6.203   5.665   9.478
21228SOL    HW168531   6.278   5.671   9.537
21228SOL    HW268532   6.234   5.703   9.396
21229SOL     OW68533   6.144   5.680   9.833
21229SOL    HW168534   6.062   5.637   9.857
21229SOL    HW268535   6.118   5.749   9.772
21230SOL     OW68536   6.977   6.774   9.341
21230SOL    HW168537   7.011   6.718   9.410
21230SOL    HW268538   6.896   6.810   9.377
21231SOL     OW68539   6.505   5.888   9.731
21231SOL    HW168540   6.473   5.949   9.664
21231SOL    HW268541   6.599   5.905   9.735
21232SOL     OW68542   5.989   6.649   0.069
21232SOL    HW168543   6.005   6.737   0.103
21232SOL    HW268544   5.954   6.662   9.981
21233SOL     OW68545   6.838   7.398   9.864
21233SOL    HW168546   6.907   7.465   9.859
21233SOL    HW268547   6.764   7.436   9.817
21234SOL     OW68548   6.651   6.151   9.233
21234SOL    HW168549   6.579   6.209   9.256
21234SOL    HW268550   6.686   6.122   9.317
21235SOL     OW68551   6.307   5.992   9.920
21235SOL    HW168552   6.312   6.086   9.904
21235SOL    HW268553   6.376   5.955   9.865
21236SOL     OW68554   7.524   6.370   9.585
21236SOL    HW168555   7.546   6.359   9.678
21236SOL    HW268556   7.454   6.307   9.570
21237SOL     OW68557   6.005   6.912   9.430
21237SOL    HW168558   6.027   6.848   9.498
21237SOL    HW268559   6.000   6.995   9.476
21238SOL     OW68560   6.980   6.219   9.411
21238SOL    HW168561   6.907   6.163   9.440
21238SOL    HW268562   7.011   6.261   9.491
21239SOL     OW68563   6.063   5.853   9.629
21239SOL    HW168564   6.098   5.786   9.570
21239SOL    HW268565   6.041   5.926   9.572
21240SOL     OW68566   6.233   6.585   9.681
21240SOL    HW168567   6.249   6.660   9.737
21240SOL    HW268568   6.319   6.544   9.670
21241SOL     OW68569   5.873   6.704   9.824
21241SOL    HW168570   5.862   6.787   9.778
21241SOL    HW268571   5.894   6.640   9.756
21242SOL     OW68572   6.822   6.943   9.677
21242SOL    HW168573   6.882   7.009   9.711
21242SOL    HW268574   6.737   6.965   9.715
21243SOL     OW68575   7.158   6.188   9.824
21243SOL    HW168576   7.100   6.171   9.899
21243SOL    HW268577   7.200   6.271   9.845
21244SOL     OW68578   6.752   6.093   9.505
21244SOL    HW168579   6.776   6.024   9.568
21244SOL    HW268580   6.698   6.153   9.556
21245SOL     OW68581   5.877   5.607   9.900
21245SOL    HW168582   5.808   5.673   9.896
21245SOL    HW268583   5.893   5.594   9.993
21246SOL     OW68584   7.176   6.003   9.623
21246SOL    HW168585   7.219   5.932   9.671
21246SOL    HW268586   7.160   6.071   9.689
21247SOL     OW68587   7.070   5.852   9.409
21247SOL    HW168588   7.056   5.771   9.458
21247SOL    HW268589   7.102   5.914   9.474
21248SOL     OW68590   6.841   6.440   9.315
21248SOL    HW168591   6.883   6.360   9.347
21248SOL    HW268592   6.895   6.468   9.241
21249SOL     OW68593   5.559   6.822   9.353
21249SOL    HW168594   5.496   6.882   9.393
21249SOL    HW268595   5.580   6.760   9.423
21250SOL     OW68596   6.379   6.070   9.563
21250SOL    HW168597   6.368   6.031   9.476
21250SOL    HW268598   6.304   6.129   9.572
21251SOL     OW68599   6.006   6.065   9.461
21251SOL    HW168600   6.060   6.137   9.493
21251SOL    HW268601   5.919   6.103   9.449
21252SOL     OW68602   6.923   6.452   9.614
21252SOL    HW168603   6.910   6.518   9.683
21252SOL    HW268604   6.840   6.452   9.565
21253SOL     OW68605   7.293   5.786   9.752
21253SOL    HW168606   7.365   5.765   9.692
21253SOL    HW268607   7.335   5.797   9.837
21254SOL     OW68608   6.968   7.168   9.774
21254SOL    HW168609   7.032   7.200   9.710
21254SOL    HW268610   6.915   7.244   9.795
21255SOL     OW68611   6.251   7.208   9.466
21255SOL    HW168612   6.247   7.301   9.445
21255SOL    HW268613   6.168   7.189   9.509
21256SOL     OW68614   6.787   7.170   9.344
21256SOL    HW168615   6.781   7.080   9.376
21256SOL    HW268616   6.708   7.182   9.292
21257SOL     OW68617   6.461   6.453   9.617
21257SOL    HW168618   6.512   6.490   9.546
21257SOL    HW268619   6.514   6.380   9.649
21258SOL     OW68620   7.071   7.164   9.342
21258SOL    HW168621   6.976   7.174   9.341
21258SOL    HW268622   7.100   7.195   9.257
21259SOL     OW68623   6.139   7.046   9.757
21259SOL    HW168624   6.128   7.094   9.839
21259SOL    HW268625   6.070   7.081   9.700
21260SOL     OW68626   5.793   6.904   9.645
21260SOL    HW168627   5.841   6.970   9.595
21260SOL    HW268628   5.760   6.951   9.721
21261SOL     OW68629   6.741   6.900   9.418
21261SOL    HW168630   6.645   6.906   9.418
21261SOL    HW268631   6.766   6.910   9.510
21262SOL     OW68632   6.791   5.936   9.738
21262SOL    HW168633   6.864   5.874   9.743
21262SOL    HW268634   6.805   5.996   9.811
21263SOL     OW68635   6.190   6.277   9.941
21263SOL    HW168636   6.216   6.361   9.978
21263SOL    HW268637   6.116   6.297   9.884
21264SOL     OW68638   6.468   6.940   9.387
21264SOL    HW168639   6.420   6.941   9.470
21264SOL    HW268640   6.458   7.028   9.352
21265SOL     OW68641   6.606   6.544   9.401
21265SOL    HW168642   6.615   6.638   9.388
21265SOL    HW268643   6.688   6.507   9.367
21266SOL     OW68644   5.644   6.699   9.978
21266SOL    HW168645   5.641   6.782   0.026
21266SOL    HW268646   5.724   6.704   9.926
21267SOL     OW68647   6.030   6.005   9.859
21267SOL    HW168648   6.033   5.948   9.782
21267SOL    HW268649   6.115   5.993   9.901
21268SOL     OW68650   6.347   6.917   9.628
21268SOL    HW168651   6.275   6.966   9.668
21268SOL    HW268652   6.423   6.936   9.683
21269SOL     OW68653   7.007   5.584   9.511
21269SOL    HW168654   7.029   5.531   9.435
21269SOL    HW268655   6.915   5.566   9.527
21270SOL     OW68656   5.630   6.657   9.567
21270SOL    HW168657   5.716   6.692   9.589
21270SOL    HW268658   5.639   6.562   9.576
21271SOL     OW68659   6.482   7.248   9.628
21271SOL    HW168660   6.411   7.225   9.569
21271SOL    HW268661   6.444   7.310   9.690
21272SOL     OW68662   5.670   7.981   0.097
21272SOL    HW168663   5.601   7.996   0.162
21272SOL    HW268664   5.664   7.887   0.077
21273SOL     OW68665   5.768   7.792   0.994
21273SOL    HW168666   5.813   7.738   1.059
21273SOL    HW268667   5.698   7.736   0.961
21274SOL     OW68668   5.611   7.884   0.642
21274SOL    HW168669   5.521   7.892   0.673
21274SOL    HW268670   5.618   7.794   0.612
21275SOL     OW68671   6.162   8.648   1.111
21275SOL    HW168672   6.101   8.720   1.128
21275SOL    HW268673   6.248   8.690   1.108
21276SOL     OW68674   7.180   8.949   0.703
21276SOL    HW168675   7.131   8.948   0.785
21276SOL    HW268676   7.116   8.978   0.637
21277SOL     OW68677   6.711   8.173   0.717
21277SOL    HW168678   6.759   8.255   0.722
21277SOL    HW268679   6.655   8.173   0.794
21278SOL     OW68680   7.349   8.033   0.249
21278SOL    HW168681   7.268   8.037   0.198
21278SOL    HW268682   7.321   8.014   0.339
21279SOL     OW68683   6.500   8.176   1.832
21279SOL    HW168684   6.516   8.249   1.892
21279SOL    HW268685   6.505   8.215   1.744
21280SOL     OW68686   6.316   8.460   0.710
21280SOL    HW168687   6.409   8.483   0.702
21280SOL    HW268688   6.303   8.444   0.804
21281SOL     OW68689   6.289   8.651   1.836
21281SOL    HW168690   6.339   8.718   1.882
21281SOL    HW268691   6.262   8.693   1.755
21282SOL     OW68692   5.965   8.856   1.132
21282SOL    HW168693   5.888   8.818   1.090
21282SOL    HW268694   5.999   8.919   1.068
21283SOL     OW68695   7.095   9.005   1.366
21283SOL    HW168696   7.153   9.080   1.355
21283SOL    HW268697   7.076   9.002   1.460
21284SOL     OW68698   6.025   7.760   1.525
21284SOL    HW168699   6.111   7.718   1.516
21284SOL    HW268700   6.028   7.833   1.463
21285SOL     OW68701   5.834   9.165   0.494
21285SOL    HW168702   5.866   9.243   0.539
21285SOL    HW268703   5.909   9.134   0.444
21286SOL     OW68704   6.737   8.767   1.719
21286SOL    HW168705   6.775   8.762   1.807
21286SOL    HW268706   6.693   8.682   1.707
21287SOL     OW68707   5.691   8.943   0.550
21287SOL    HW168708   5.751   9.015   0.534
21287SOL    HW268709   5.668   8.950   0.643
21288SOL     OW68710   5.865   8.558   0.844
21288SOL    HW168711   5.883   8.479   0.896
21288SOL    HW268712   5.830   8.620   0.908
21289SOL     OW68713   6.152   9.299   1.395
21289SOL    HW168714   6.071   9.288   1.445
21289SOL    HW268715   6.197   9.372   1.438
21290SOL     OW68716   6.185   8.368   0.140
21290SOL    HW168717   6.154   8.438   0.083
21290SOL    HW268718   6.275   8.393   0.162
21291SOL     OW68719   7.174   7.598   1.445
21291SOL    HW168720   7.238   7.657   1.404
21291SOL    HW268721   7.090   7.641   1.432
21292SOL     OW68722   5.709   8.144   0.577
21292SOL    HW168723   5.679   8.054   0.593
21292SOL    HW268724   5.703   8.187   0.662
21293SOL     OW68725   7.464   9.180   0.285
21293SOL    HW168726   7.530   9.161   0.352
21293SOL    HW268727   7.467   9.275   0.274
21294SOL     OW68728   5.577   9.015   0.240
21294SOL    HW168729   5.590   8.929   0.199
21294SOL    HW268730   5.640   9.072   0.196
21295SOL     OW68731   7.285   8.249   0.616
21295SOL    HW168732   7.364   8.262   0.668
21295SOL    HW268733   7.276   8.328   0.564
21296SOL     OW68734   7.225   8.499   0.478
21296SOL    HW168735   7.309   8.513   0.434
21296SOL    HW268736   7.226   8.559   0.552
21297SOL     OW68737   5.677   8.240   1.551
21297SOL    HW168738   5.720   8.316   1.512
21297SOL    HW268739   5.584   8.259   1.544
21298SOL     OW68740   6.155   8.842   0.759
21298SOL    HW168741   6.120   8.754   0.748
21298SOL    HW268742   6.163   8.877   0.671
21299SOL     OW68743   6.918   8.644   1.363
21299SOL    HW168744   6.995   8.680   1.320
21299SOL    HW268745   6.945   8.630   1.454
21300SOL     OW68746   6.412   7.566   0.567
21300SOL    HW168747   6.443   7.588   0.479
21300SOL    HW268748   6.319   7.546   0.555
21301SOL     OW68749   5.738   8.475   1.396
21301SOL    HW168750   5.807   8.426   1.351
21301SOL    HW268751   5.713   8.544   1.335
21302SOL     OW68752   7.093   8.428   0.237
21302SOL    HW168753   7.015   8.379   0.264
21302SOL    HW268754   7.145   8.436   0.317
21303SOL     OW68755   6.755   9.276   1.667
21303SOL    HW168756   6.757   9.338   1.594
21303SOL    HW268757   6.764   9.190   1.625
21304SOL     OW68758   5.909   7.697   1.773
21304SOL    HW168759   5.951   7.740   1.698
21304SOL    HW268760   5.832   7.750   1.791
21305SOL     OW68761   7.060   8.880   0.948
21305SOL    HW168762   7.002   8.905   1.020
21305SOL    HW268763   7.031   8.792   0.925
21306SOL     OW68764   7.257   9.241   0.550
21306SOL    HW168765   7.236   9.195   0.469
21306SOL    HW268766   7.252   9.174   0.618
21307SOL     OW68767   6.225   8.180   0.350
21307SOL    HW168768   6.209   8.227   0.268
21307SOL    HW268769   6.138   8.171   0.389
21308SOL     OW68770   6.895   7.818   0.921
21308SOL    HW168771   6.808   7.778   0.930
21308SOL    HW268772   6.951   7.767   0.979
21309SOL     OW68773   7.189   9.118   0.303
21309SOL    HW168774   7.281   9.133   0.284
21309SOL    HW268775   7.146   9.113   0.218
21310SOL     OW68776   6.271   8.082   1.504
21310SOL    HW168777   6.326   8.029   1.562
21310SOL    HW268778   6.270   8.034   1.421
21311SOL     OW68779   7.020   7.881   1.678
21311SOL    HW168780   7.003   7.940   1.751
21311SOL    HW268781   7.103   7.910   1.642
21312SOL     OW68782   6.538   8.288   1.581
21312SOL    HW168783   6.580   8.206   1.555
21312SOL    HW268784   6.479   8.309   1.509
21313SOL     OW68785   6.661   7.821   1.206
21313SOL    HW168786   6.614   7.903   1.224
21313SOL    HW268787   6.639   7.800   1.116
21314SOL     OW68788   6.668   8.155   0.442
21314SOL    HW168789   6.680   8.161   0.537
21314SOL    HW268790   6.585   8.108   0.431
21315SOL     OW68791   5.689   8.280   0.814
21315SOL    HW168792   5.771   8.294   0.863
21315SOL    HW268793   5.628   8.343   0.853
21316SOL     OW68794   5.680   9.298   1.596
21316SOL    HW168795   5.705   9.274   1.685
21316SOL    HW268796   5.601   9.247   1.578
21317SOL     OW68797   6.461   7.862   0.155
21317SOL    HW168798   6.525   7.922   0.118
21317SOL    HW268799   6.397   7.849   0.085
21318SOL     OW68800   7.255   8.007   1.829
21318SOL    HW168801   7.234   8.076   1.766
21318SOL    HW268802   7.308   7.944   1.780
21319SOL     OW68803   6.932   8.570   0.469
21319SOL    HW168804   7.026   8.563   0.451
21319SOL    HW268805   6.890   8.526   0.395
21320SOL     OW68806   6.195   7.705   0.875
21320SOL    HW168807   6.178   7.798   0.883
21320SOL    HW268808   6.224   7.694   0.784
21321SOL     OW68809   5.935   9.273   0.880
21321SOL    HW168810   5.974   9.188   0.903
21321SOL    HW268811   6.000   9.337   0.908
21322SOL     OW68812   7.358   8.468   0.888
21322SOL    HW168813   7.356   8.548   0.836
21322SOL    HW268814   7.301   8.487   0.963
21323SOL     OW68815   6.771   9.007   1.584
21323SOL    HW168816   6.785   8.924   1.630
21323SOL    HW268817   6.753   8.981   1.494
21324SOL     OW68818   6.013   8.449   0.348
21324SOL    HW168819   6.066   8.416   0.276
21324SOL    HW268820   5.986   8.371   0.396
21325SOL     OW68821   7.036   8.234   0.733
21325SOL    HW168822   7.042   8.170   0.804
21325SOL    HW268823   7.124   8.238   0.697
21326SOL     OW68824   5.994   8.640   1.695
21326SOL    HW168825   6.064   8.678   1.642
21326SOL    HW268826   5.968   8.710   1.755
21327SOL     OW68827   5.761   7.731   1.445
21327SOL    HW168828   5.750   7.826   1.440
21327SOL    HW268829   5.846   7.718   1.486
21328SOL     OW68830   7.185   8.819   0.109
21328SOL    HW168831   7.153   8.908   0.090
21328SOL    HW268832   7.110   8.763   0.095
21329SOL     OW68833   6.048   9.096   0.341
21329SOL    HW168834   6.101   9.167   0.377
21329SOL    HW268835   6.087   9.079   0.255
21330SOL     OW68836   5.868   9.196   1.212
21330SOL    HW168837   5.930   9.123   1.214
21330SOL    HW268838   5.789   9.160   1.171
21331SOL     OW68839   6.540   9.138   0.912
21331SOL    HW168840   6.627   9.112   0.879
21331SOL    HW268841   6.489   9.057   0.910
21332SOL     OW68842   5.973   8.176   0.481
21332SOL    HW168843   5.994   8.083   0.486
21332SOL    HW268844   5.882   8.182   0.508
21333SOL     OW68845   7.094   7.635   1.786
21333SOL    HW168846   7.117   7.666   1.874
21333SOL    HW268847   7.055   7.712   1.743
21334SOL     OW68848   6.199   7.544   0.134
21334SOL    HW168849   6.255   7.476   0.173
21334SOL    HW268850   6.238   7.561   0.049
21335SOL     OW68851   6.363   7.703   1.820
21335SOL    HW168852   6.443   7.653   1.806
21335SOL    HW268853   6.379   7.786   1.775
21336SOL     OW68854   6.396   8.960   1.290
21336SOL    HW168855   6.391   8.985   1.197
21336SOL    HW268856   6.426   8.869   1.288
21337SOL     OW68857   6.905   8.042   1.458
21337SOL    HW168858   6.970   8.036   1.528
21337SOL    HW268859   6.926   8.124   1.413
21338SOL     OW68860   6.405   8.896   0.875
21338SOL    HW168861   6.409   8.846   0.957
21338SOL    HW268862   6.318   8.876   0.839
21339SOL     OW68863   6.513   7.918   0.893
21339SOL    HW168864   6.487   7.913   0.801
21339SOL    HW268865   6.560   7.837   0.909
21340SOL     OW68866   6.128   7.543   0.529
21340SOL    HW168867   6.044   7.538   0.575
21340SOL    HW268868   6.115   7.608   0.460
21341SOL     OW68869   6.977   8.626   0.076
21341SOL    HW168870   7.027   8.561   0.126
21341SOL    HW268871   6.929   8.574   0.012
21342SOL     OW68872   6.557   7.664   0.344
21342SOL    HW168873   6.517   7.726   0.283
21342SOL    HW268874   6.630   7.712   0.384
21343SOL     OW68875   6.635   8.034   1.524
21343SOL    HW168876   6.601   8.034   1.435
21343SOL    HW268877   6.730   8.030   1.513
21344SOL     OW68878   6.782   9.068   0.788
21344SOL    HW168879   6.803   9.121   0.711
21344SOL    HW268880   6.858   9.080   0.846
21345SOL     OW68881   6.066   8.594   0.654
21345SOL    HW168882   5.995   8.575   0.715
21345SOL    HW268883   6.137   8.536   0.682
21346SOL     OW68884   6.829   9.254   0.559
21346SOL    HW168885   6.883   9.315   0.510
21346SOL    HW268886   6.754   9.305   0.588
21347SOL     OW68887   6.646   8.047   0.062
21347SOL    HW168888   6.665   8.136   0.032
21347SOL    HW268889   6.714   8.028   0.127
21348SOL     OW68890   5.731   8.002   1.423
21348SOL    HW168891   5.818   8.008   1.384
21348SOL    HW268892   5.716   8.087   1.465
21349SOL     OW68893   6.149   7.712   1.154
21349SOL    HW168894   6.168   7.699   1.061
21349SOL    HW268895   6.057   7.689   1.163
21350SOL     OW68896   6.449   7.863   0.632
21350SOL    HW168897   6.441   7.920   0.555
21350SOL    HW268898   6.450   7.775   0.595
21351SOL     OW68899   6.633   7.509   0.728
21351SOL    HW168900   6.559   7.531   0.671
21351SOL    HW268901   6.606   7.429   0.773
21352SOL     OW68902   7.028   8.615   0.855
21352SOL    HW168903   6.961   8.566   0.807
21352SOL    HW268904   7.098   8.627   0.792
21353SOL     OW68905   7.046   8.055   0.946
21353SOL    HW168906   7.004   7.969   0.940
21353SOL    HW268907   7.112   8.045   1.014
21354SOL     OW68908   7.492   8.241   0.384
21354SOL    HW168909   7.512   8.184   0.459
21354SOL    HW268910   7.446   8.184   0.322
21355SOL     OW68911   6.047   8.780   0.217
21355SOL    HW168912   6.039   8.875   0.215
21355SOL    HW268913   6.114   8.759   0.152
21356SOL     OW68914   7.250   8.679   0.691
21356SOL    HW168915   7.345   8.675   0.679
21356SOL    HW268916   7.230   8.772   0.688
21357SOL     OW68917   7.065   8.001   0.165
21357SOL    HW168918   6.979   8.001   0.207
21357SOL    HW268919   7.058   8.067   0.096
21358SOL     OW68920   6.089   7.721   0.322
21358SOL    HW168921   6.135   7.667   0.257
21358SOL    HW268922   6.048   7.790   0.270
21359SOL     OW68923   7.318   8.652   1.588
21359SOL    HW168924   7.405   8.622   1.564
21359SOL    HW268925   7.324   8.747   1.589
21360SOL     OW68926   6.723   8.845   1.356
21360SOL    HW168927   6.638   8.805   1.336
21360SOL    HW268928   6.781   8.772   1.376
21361SOL     OW68929   7.164   9.068   1.635
21361SOL    HW168930   7.190   9.147   1.587
21361SOL    HW268931   7.238   9.008   1.623
21362SOL     OW68932   7.167   8.539   1.082
21362SOL    HW168933   7.167   8.615   1.140
21362SOL    HW268934   7.113   8.565   1.008
21363SOL     OW68935   6.515   7.519   1.390
21363SOL    HW168936   6.530   7.511   1.296
21363SOL    HW268937   6.594   7.562   1.423
21364SOL     OW68938   6.576   8.540   1.691
21364SOL    HW168939   6.500   8.580   1.648
21364SOL    HW268940   6.580   8.452   1.655
21365SOL     OW68941   6.295   8.577   0.425
21365SOL    HW168942   6.314   8.542   0.512
21365SOL    HW268943   6.345   8.522   0.365
21366SOL     OW68944   5.943   8.333   1.283
21366SOL    HW168945   6.024   8.347   1.333
21366SOL    HW268946   5.970   8.342   1.191
21367SOL     OW68947   6.897   7.790   1.337
21367SOL    HW168948   6.908   7.877   1.377
21367SOL    HW268949   6.819   7.798   1.283
21368SOL     OW68950   6.152   7.986   0.894
21368SOL    HW168951   6.150   8.044   0.818
21368SOL    HW268952   6.224   8.019   0.948
21369SOL     OW68953   6.821   8.869   0.422
21369SOL    HW168954   6.901   8.910   0.455
21369SOL    HW268955   6.837   8.775   0.429
21370SOL     OW68956   6.903   8.950   1.173
21370SOL    HW168957   6.972   8.972   1.236
21370SOL    HW268958   6.831   8.918   1.227
21371SOL     OW68959   7.235   7.999   0.501
21371SOL    HW168960   7.141   8.018   0.500
21371SOL    HW268961   7.273   8.074   0.547
21372SOL     OW68962   5.947   8.848   1.413
21372SOL    HW168963   5.936   8.835   1.319
21372SOL    HW268964   6.023   8.906   1.420
21373SOL     OW68965   6.039   8.190   1.619
21373SOL    HW168966   6.045   8.261   1.555
21373SOL    HW268967   6.116   8.135   1.602
21374SOL     OW68968   7.141   8.160   1.629
21374SOL    HW168969   7.066   8.217   1.645
21374SOL    HW268970   7.207   8.217   1.591
21375SOL     OW68971   6.596   7.573   1.777
21375SOL    HW168972   6.659   7.644   1.766
21375SOL    HW268973   6.640   7.496   1.740
21376SOL     OW68974   6.037   7.453   1.721
21376SOL    HW168975   5.981   7.410   1.656
21376SOL    HW268976   5.998   7.540   1.733
21377SOL     OW68977   6.173   8.379   1.069
21377SOL    HW168978   6.263   8.356   1.090
21377SOL    HW268979   6.167   8.473   1.086
21378SOL     OW68980   6.900   8.244   1.082
21378SOL    HW168981   6.808   8.222   1.070
21378SOL    HW268982   6.947   8.186   1.022
21379SOL     OW68983   6.815   7.988   0.278
21379SOL    HW168984   6.807   7.906   0.328
21379SOL    HW268985   6.773   8.053   0.334
21380SOL     OW68986   5.879   7.643   1.199
21380SOL    HW168987   5.844   7.678   1.280
21380SOL    HW268988   5.874   7.548   1.210
21381SOL     OW68989   6.359   8.078   1.054
21381SOL    HW168990   6.424   8.036   0.998
21381SOL    HW268991   6.391   8.168   1.065
21382SOL     OW68992   7.316   8.404   1.851
21382SOL    HW168993   7.270   8.446   1.778
21382SOL    HW268994   7.259   8.420   1.927
21383SOL     OW68995   5.876   7.537   0.646
21383SOL    HW168996   5.872   7.631   0.666
21383SOL    HW268997   5.787   7.516   0.616
21384SOL     OW68998   6.493   8.909   1.683
21384SOL    HW168999   6.495   8.990   1.633
21384SOL    HW269000   6.583   8.876   1.678
21385SOL     OW69001   7.386   8.916   1.562
21385SOL    HW169002   7.416   8.930   1.472
21385SOL    HW269003   7.433   8.982   1.613
21386SOL     OW69004   5.909   8.384   1.780
21386SOL    HW169005   5.944   8.467   1.748
21386SOL    HW269006   5.956   8.317   1.730
21387SOL     OW69007   7.101   7.752   0.299
21387SOL    HW169008   7.086   7.689   0.228
21387SOL    HW269009   7.092   7.838   0.257
21388SOL     OW69010   6.653   8.794   0.791
21388SOL    HW169011   6.568   8.828   0.820
21388SOL    HW269012   6.708   8.871   0.781
21389SOL     OW69013   5.926   8.303   0.970
21389SOL    HW169014   6.017   8.327   0.987
21389SOL    HW269015   5.921   8.210   0.994
21390SOL     OW69016   5.920   8.021   1.038
21390SOL    HW169017   5.867   7.946   1.011
21390SOL    HW269018   6.002   8.012   0.988
21391SOL     OW69019   6.757   7.791   1.723
21391SOL    HW169020   6.721   7.852   1.787
21391SOL    HW269021   6.843   7.827   1.702
21392SOL     OW69022   6.751   7.621   1.501
21392SOL    HW169023   6.744   7.684   1.573
21392SOL    HW269024   6.802   7.667   1.434
21393SOL     OW69025   5.587   8.753   0.155
21393SOL    HW169026   5.494   8.765   0.136
21393SOL    HW269027   5.591   8.678   0.213
21394SOL     OW69028   5.662   9.248   0.927
21394SOL    HW169029   5.641   9.171   0.873
21394SOL    HW269030   5.756   9.262   0.913
21395SOL     OW69031   6.066   9.029   0.941
21395SOL    HW169032   6.140   9.088   0.944
21395SOL    HW269033   6.089   8.963   0.876
21396SOL     OW69034   6.540   8.062   1.274
21396SOL    HW169035   6.449   8.059   1.244
21396SOL    HW269036   6.582   8.127   1.217
21397SOL     OW69037   5.613   8.007   1.109
21397SOL    HW169038   5.653   7.935   1.059
21397SOL    HW269039   5.682   8.073   1.113
21398SOL     OW69040   5.815   8.073   1.740
21398SOL    HW169041   5.900   8.098   1.703
21398SOL    HW269042   5.751   8.122   1.689
21399SOL     OW69043   6.940   8.352   1.612
21399SOL    HW169044   6.975   8.440   1.619
21399SOL    HW269045   6.937   8.334   1.518
21400SOL     OW69046   6.435   8.010   0.393
21400SOL    HW169047   6.436   7.960   0.312
21400SOL    HW269048   6.358   8.067   0.386
21401SOL     OW69049   7.228   8.056   1.167
21401SOL    HW169050   7.230   8.005   1.248
21401SOL    HW269051   7.316   8.049   1.132
21402SOL     OW69052   5.921   8.956   1.804
21402SOL    HW169053   5.886   9.044   1.799
21402SOL    HW269054   5.844   8.899   1.809
21403SOL     OW69055   6.250   7.943   1.265
21403SOL    HW169056   6.230   7.854   1.234
21403SOL    HW269057   6.277   7.990   1.186
21404SOL     OW69058   6.441   9.127   1.512
21404SOL    HW169059   6.432   9.071   1.435
21404SOL    HW269060   6.465   9.213   1.477
21405SOL     OW69061   5.970   7.911   0.162
21405SOL    HW169062   6.023   7.979   0.122
21405SOL    HW269063   5.880   7.942   0.153
21406SOL     OW69064   6.846   8.330   0.312
21406SOL    HW169065   6.789   8.275   0.366
21406SOL    HW269066   6.793   8.350   0.234
21407SOL     OW69067   7.323   9.203   1.074
21407SOL    HW169068   7.337   9.279   1.131
21407SOL    HW269069   7.391   9.211   1.006
21408SOL     OW69070   6.847   9.212   1.093
21408SOL    HW169071   6.924   9.222   1.038
21408SOL    HW269072   6.852   9.122   1.126
21409SOL     OW69073   5.737   8.735   1.018
21409SOL    HW169074   5.720   8.717   1.110
21409SOL    HW269075   5.659   8.782   0.988
21410SOL     OW69076   6.284   9.158   1.758
21410SOL    HW169077   6.221   9.229   1.746
21410SOL    HW269078   6.332   9.153   1.676
21411SOL     OW69079   7.015   9.046   0.507
21411SOL    HW169080   7.068   9.069   0.431
21411SOL    HW269081   6.959   9.123   0.521
21412SOL     OW69082   5.774   9.194   1.837
21412SOL    HW169083   5.721   9.131   1.885
21412SOL    HW269084   5.806   9.255   1.903
21413SOL     OW69085   6.852   8.431   0.696
21413SOL    HW169086   6.921   8.365   0.704
21413SOL    HW269087   6.874   8.478   0.615
21414SOL     OW69088   6.368   8.586   1.481
21414SOL    HW169089   6.316   8.658   1.517
21414SOL    HW269090   6.416   8.625   1.408
21415SOL     OW69091   6.151   9.022   0.104
21415SOL    HW169092   6.203   9.100   0.088
21415SOL    HW269093   6.194   8.953   0.053
21416SOL     OW69094   7.257   9.239   1.418
21416SOL    HW169095   7.288   9.286   1.341
21416SOL    HW269096   7.289   9.290   1.492
21417SOL     OW69097   5.864   7.802   0.724
21417SOL    HW169098   5.783   7.838   0.689
21417SOL    HW269099   5.853   7.806   0.819
21418SOL     OW69100   6.436   8.399   0.253
21418SOL    HW169101   6.513   8.406   0.197
21418SOL    HW269102   6.452   8.322   0.307
21419SOL     OW69103   7.071   9.090   0.042
21419SOL    HW169104   7.057   9.185   0.045
21419SOL    HW269105   7.034   9.063   9.958
21420SOL     OW69106   7.158   8.748   1.269
21420SOL    HW169107   7.252   8.733   1.280
21420SOL    HW269108   7.144   8.838   1.296
21421SOL     OW69109   6.585   8.532   0.717
21421SOL    HW169110   6.605   8.623   0.737
21421SOL    HW269111   6.671   8.491   0.706
21422SOL     OW69112   6.649   7.679   0.949
21422SOL    HW169113   6.653   7.632   0.866
21422SOL    HW269114   6.637   7.611   1.015
21423SOL     OW69115   6.162   8.881   0.482
21423SOL    HW169116   6.250   8.912   0.502
21423SOL    HW269117   6.120   8.955   0.438
21424SOL     OW69118   7.316   7.837   1.367
21424SOL    HW169119   7.395   7.889   1.381
21424SOL    HW269120   7.330   7.794   1.283
21425SOL     OW69121   5.835   8.731   0.423
21425SOL    HW169122   5.836   8.773   0.337
21425SOL    HW269123   5.783   8.790   0.478
21426SOL     OW69124   5.655   8.500   1.759
21426SOL    HW169125   5.578   8.452   1.788
21426SOL    HW269126   5.726   8.435   1.762
21427SOL     OW69127   6.278   7.620   1.525
21427SOL    HW169128   6.355   7.606   1.470
21427SOL    HW269129   6.313   7.645   1.610
21428SOL     OW69130   5.650   7.702   0.042
21428SOL    HW169131   5.618   7.648   0.114
21428SOL    HW269132   5.734   7.664   0.018
21429SOL     OW69133   6.968   8.286   1.339
21429SOL    HW169134   6.951   8.259   1.249
21429SOL    HW269135   7.060   8.312   1.339
21430SOL     OW69136   6.715   8.651   0.192
21430SOL    HW169137   6.653   8.710   0.148
21430SOL    HW269138   6.800   8.675   0.155
21431SOL     OW69139   6.171   8.360   1.439
21431SOL    HW169140   6.229   8.436   1.442
21431SOL    HW269141   6.231   8.285   1.441
21432SOL     OW69142   7.076   9.220   0.950
21432SOL    HW169143   7.094   9.304   0.908
21432SOL    HW269144   7.157   9.200   0.998
21433SOL     OW69145   6.433   7.942   1.692
21433SOL    HW169146   6.440   8.014   1.755
21433SOL    HW269147   6.510   7.952   1.636
21434SOL     OW69148   7.042   8.609   1.607
21434SOL    HW169149   7.023   8.622   1.700
21434SOL    HW269150   7.135   8.632   1.598
21435SOL     OW69151   5.944   9.220   1.558
21435SOL    HW169152   5.853   9.252   1.554
21435SOL    HW269153   5.937   9.126   1.542
21436SOL     OW69154   7.227   8.331   1.255
21436SOL    HW169155   7.239   8.249   1.206
21436SOL    HW269156   7.218   8.398   1.187
21437SOL     OW69157   6.794   7.766   0.445
21437SOL    HW169158   6.861   7.698   0.458
21437SOL    HW269159   6.801   7.820   0.524
21438SOL     OW69160   6.158   8.190   0.704
21438SOL    HW169161   6.220   8.260   0.684
21438SOL    HW269162   6.099   8.188   0.629
21439SOL     OW69163   7.354   7.789   1.643
21439SOL    HW169164   7.329   7.819   1.556
21439SOL    HW269165   7.449   7.775   1.637
21440SOL     OW69166   7.262   8.381   1.523
21440SOL    HW169167   7.281   8.474   1.537
21440SOL    HW269168   7.269   8.370   1.428
21441SOL     OW69169   6.492   8.783   0.069
21441SOL    HW169170   6.399   8.769   0.051
21441SOL    HW269171   6.527   8.823   9.990
21442SOL     OW69172   6.263   9.213   0.920
21442SOL    HW169173   6.233   9.303   0.910
21442SOL    HW269174   6.357   9.217   0.904
21443SOL     OW69175   6.673   8.399   0.105
21443SOL    HW169176   6.681   8.488   0.140
21443SOL    HW269177   6.724   8.401   0.024
21444SOL     OW69178   7.445   8.977   0.764
21444SOL    HW169179   7.357   8.974   0.727
21444SOL    HW269180   7.432   8.952   0.856
21445SOL     OW69181   5.742   8.745   1.826
21445SOL    HW169182   5.716   8.654   1.811
21445SOL    HW269183   5.691   8.773   1.902
21446SOL     OW69184   5.611   8.636   0.717
21446SOL    HW169185   5.570   8.586   0.788
21446SOL    HW269186   5.705   8.625   0.730
21447SOL     OW69187   6.245   8.809   1.607
21447SOL    HW169188   6.200   8.878   1.557
21447SOL    HW269189   6.327   8.849   1.635
21448SOL     OW69190   7.313   7.665   1.148
21448SOL    HW169191   7.329   7.573   1.125
21448SOL    HW269192   7.351   7.715   1.076
21449SOL     OW69193   6.024   7.914   0.522
21449SOL    HW169194   6.049   7.844   0.461
21449SOL    HW269195   5.979   7.868   0.593
21450SOL     OW69196   7.333   8.925   1.012
21450SOL    HW169197   7.240   8.909   0.997
21450SOL    HW269198   7.335   9.010   1.057
21451SOL     OW69199   5.978   7.962   1.308
21451SOL    HW169200   6.074   7.969   1.304
21451SOL    HW269201   5.949   7.990   1.221
21452SOL     OW69202   6.373   9.009   0.605
21452SOL    HW169203   6.402   9.099   0.592
21452SOL    HW269204   6.398   8.989   0.695
21453SOL     OW69205   7.037   7.693   1.115
21453SOL    HW169206   7.131   7.686   1.132
21453SOL    HW269207   7.000   7.724   1.198
21454SOL     OW69208   6.608   7.444   1.107
21454SOL    HW169209   6.561   7.394   1.039
21454SOL    HW269210   6.699   7.414   1.100
21455SOL     OW69211   6.452   8.828   0.342
21455SOL    HW169212   6.410   8.750   0.379
21455SOL    HW269213   6.470   8.804   0.251
21456SOL     OW69214   6.162   9.016   1.420
21456SOL    HW169215   6.161   9.112   1.413
21456SOL    HW269216   6.239   8.989   1.370
21457SOL     OW69217   6.835   7.921   0.666
21457SOL    HW169218   6.797   8.007   0.683
21457SOL    HW269219   6.863   7.890   0.752
21458SOL     OW69220   5.624   8.546   0.336
21458SOL    HW169221   5.704   8.579   0.379
21458SOL    HW269222   5.633   8.451   0.340
21459SOL     OW69223   5.780   8.035   2.010
21459SOL    HW169224   5.766   8.122   2.048
21459SOL    HW269225   5.799   8.052   1.918
21460SOL     OW69226   5.758   7.766   2.866
21460SOL    HW169227   5.800   7.729   2.944
21460SOL    HW269228   5.699   7.833   2.900
21461SOL     OW69229   5.602   7.850   2.508
21461SOL    HW169230   5.519   7.874   2.549
21461SOL    HW269231   5.580   7.777   2.450
21462SOL     OW69232   6.121   8.704   3.059
21462SOL    HW169233   6.049   8.737   3.006
21462SOL    HW269234   6.149   8.780   3.111
21463SOL     OW69235   7.177   8.970   2.586
21463SOL    HW169236   7.123   8.957   2.664
21463SOL    HW269237   7.114   8.993   2.518
21464SOL     OW69238   6.696   8.140   2.551
21464SOL    HW169239   6.744   8.221   2.532
21464SOL    HW269240   6.644   8.160   2.628
21465SOL     OW69241   7.335   7.987   2.090
21465SOL    HW169242   7.306   8.021   2.005
21465SOL    HW269243   7.405   7.925   2.068
21466SOL     OW69244   6.324   8.570   2.941
21466SOL    HW169245   6.252   8.611   2.990
21466SOL    HW269246   6.362   8.642   2.891
21467SOL     OW69247   6.420   8.220   3.666
21467SOL    HW169248   6.479   8.269   3.723
21467SOL    HW269249   6.425   8.263   3.581
21468SOL     OW69250   6.223   8.387   2.549
21468SOL    HW169251   6.303   8.393   2.600
21468SOL    HW269252   6.171   8.464   2.576
21469SOL     OW69253   6.311   8.615   3.716
21469SOL    HW169254   6.361   8.689   3.751
21469SOL    HW269255   6.237   8.656   3.671
21470SOL     OW69256   5.921   8.842   2.924
21470SOL    HW169257   5.840   8.818   2.880
21470SOL    HW269258   5.965   8.901   2.863
21471SOL     OW69259   7.032   8.950   3.254
21471SOL    HW169260   7.098   9.019   3.247
21471SOL    HW269261   6.969   8.984   3.318
21472SOL     OW69262   6.001   7.705   3.471
21472SOL    HW169263   6.071   7.722   3.408
21472SOL    HW269264   5.922   7.736   3.427
21473SOL     OW69265   7.172   7.930   2.607
21473SOL    HW169266   7.190   7.956   2.517
21473SOL    HW269267   7.244   7.967   2.658
21474SOL     OW69268   5.826   9.155   2.315
21474SOL    HW169269   5.847   9.220   2.382
21474SOL    HW269270   5.898   9.160   2.252
21475SOL     OW69271   6.709   8.786   3.555
21475SOL    HW169272   6.769   8.768   3.628
21475SOL    HW269273   6.664   8.703   3.540
21476SOL     OW69274   5.743   8.918   2.441
21476SOL    HW169275   5.775   8.997   2.397
21476SOL    HW269276   5.687   8.952   2.511
21477SOL     OW69277   5.819   8.565   2.731
21477SOL    HW169278   5.832   8.478   2.769
21477SOL    HW269279   5.768   8.611   2.797
21478SOL     OW69280   6.180   9.199   3.270
21478SOL    HW169281   6.098   9.202   3.320
21478SOL    HW269282   6.216   9.287   3.277
21479SOL     OW69283   6.199   8.454   2.000
21479SOL    HW169284   6.224   8.510   1.927
21479SOL    HW269285   6.242   8.493   2.076
21480SOL     OW69286   7.192   7.604   3.307
21480SOL    HW169287   7.233   7.678   3.262
21480SOL    HW269288   7.237   7.600   3.392
21481SOL     OW69289   5.715   8.101   2.436
21481SOL    HW169290   5.678   8.014   2.452
21481SOL    HW269291   5.694   8.151   2.515
21482SOL     OW69292   5.660   9.010   2.004
21482SOL    HW169293   5.627   8.924   2.027
21482SOL    HW269294   5.620   9.070   2.067
21483SOL     OW69295   7.236   8.290   2.474
21483SOL    HW169296   7.292   8.326   2.543
21483SOL    HW269297   7.227   8.361   2.411
21484SOL     OW69298   7.237   8.527   2.313
21484SOL    HW169299   7.323   8.516   2.273
21484SOL    HW269300   7.249   8.597   2.377
21485SOL     OW69301   5.668   8.200   3.391
21485SOL    HW169302   5.715   8.265   3.339
21485SOL    HW269303   5.583   8.241   3.409
21486SOL     OW69304   6.198   8.816   2.601
21486SOL    HW169305   6.147   8.736   2.587
21486SOL    HW269306   6.208   8.854   2.514
21487SOL     OW69307   6.865   8.628   3.305
21487SOL    HW169308   6.902   8.587   3.227
21487SOL    HW269309   6.939   8.641   3.364
21488SOL     OW69310   6.382   7.454   2.326
21488SOL    HW169311   6.438   7.529   2.307
21488SOL    HW269312   6.295   7.491   2.336
21489SOL     OW69313   5.763   8.386   3.208
21489SOL    HW169314   5.855   8.374   3.181
21489SOL    HW269315   5.715   8.391   3.125
21490SOL     OW69316   7.128   8.443   2.066
21490SOL    HW169317   7.066   8.378   2.098
21490SOL    HW269318   7.168   8.479   2.146
21491SOL     OW69319   6.747   9.298   3.501
21491SOL    HW169320   6.762   9.361   3.432
21491SOL    HW269321   6.795   9.220   3.474
21492SOL     OW69322   5.933   7.706   3.743
21492SOL    HW169323   5.950   7.732   3.653
21492SOL    HW269324   5.845   7.738   3.761
21493SOL     OW69325   7.058   8.860   2.819
21493SOL    HW169326   6.988   8.868   2.885
21493SOL    HW269327   7.038   8.779   2.773
21494SOL     OW69328   6.214   8.206   2.160
21494SOL    HW169329   6.303   8.240   2.151
21494SOL    HW269330   6.167   8.241   2.084
21495SOL     OW69331   6.896   7.822   2.843
21495SOL    HW169332   6.875   7.850   2.754
21495SOL    HW269333   6.969   7.762   2.833
21496SOL     OW69334   7.080   9.106   2.159
21496SOL    HW169335   7.157   9.157   2.183
21496SOL    HW269336   7.079   9.106   2.064
21497SOL     OW69337   6.396   7.891   3.278
21497SOL    HW169338   6.448   7.951   3.331
21497SOL    HW269339   6.341   7.947   3.224
21498SOL     OW69340   7.070   7.921   3.615
21498SOL    HW169341   7.049   7.966   3.697
21498SOL    HW269342   7.098   7.990   3.556
21499SOL     OW69343   6.467   8.327   3.407
21499SOL    HW169344   6.524   8.252   3.393
21499SOL    HW269345   6.474   8.379   3.326
21500SOL     OW69346   6.563   7.821   3.063
21500SOL    HW169347   6.517   7.839   3.145
21500SOL    HW269348   6.524   7.880   2.999
21501SOL     OW69349   6.594   8.125   2.295
21501SOL    HW169350   6.635   8.126   2.382
21501SOL    HW269351   6.522   8.061   2.304
21502SOL     OW69352   5.660   8.236   2.668
21502SOL    HW169353   5.742   8.263   2.709
21502SOL    HW269354   5.599   8.306   2.690
21503SOL     OW69355   5.716   9.342   3.449
21503SOL    HW169356   5.738   9.354   3.541
21503SOL    HW269357   5.719   9.431   3.412
21504SOL     OW69358   6.458   7.816   2.064
21504SOL    HW169359   6.531   7.863   2.024
21504SOL    HW269360   6.415   7.771   1.991
21505SOL     OW69361   7.343   8.055   3.689
21505SOL    HW169362   7.319   8.146   3.674
21505SOL    HW269363   7.434   8.049   3.659
21506SOL     OW69364   6.961   8.578   2.390
21506SOL    HW169365   7.048   8.574   2.350
21506SOL    HW269366   6.920   8.655   2.350
21507SOL     OW69367   6.206   7.689   2.780
21507SOL    HW169368   6.182   7.681   2.872
21507SOL    HW269369   6.181   7.778   2.756
21508SOL     OW69370   6.590   8.916   2.327
21508SOL    HW169371   6.571   8.988   2.267
21508SOL    HW269372   6.562   8.949   2.413
21509SOL     OW69373   5.951   9.266   2.776
21509SOL    HW169374   6.002   9.185   2.770
21509SOL    HW269375   6.017   9.335   2.784
21510SOL     OW69376   7.381   8.429   2.672
21510SOL    HW169377   7.429   8.500   2.630
21510SOL    HW269378   7.371   8.457   2.763
21511SOL     OW69379   6.802   9.016   3.403
21511SOL    HW169380   6.784   8.931   3.443
21511SOL    HW269381   6.719   9.042   3.364
21512SOL     OW69382   5.953   8.363   2.054
21512SOL    HW169383   6.037   8.401   2.029
21512SOL    HW269384   5.904   8.359   1.971
21513SOL     OW69385   7.011   8.205   2.614
21513SOL    HW169386   7.037   8.173   2.700
21513SOL    HW269387   7.094   8.226   2.571
21514SOL     OW69388   6.077   8.710   3.598
21514SOL    HW169389   6.040   8.711   3.510
21514SOL    HW269390   6.002   8.725   3.656
21515SOL     OW69391   6.688   9.238   2.035
21515SOL    HW169392   6.624   9.204   2.098
21515SOL    HW269393   6.721   9.160   1.991
21516SOL     OW69394   5.738   7.750   3.358
21516SOL    HW169395   5.728   7.830   3.306
21516SOL    HW269396   5.688   7.767   3.438
21517SOL     OW69397   7.262   8.849   1.997
21517SOL    HW169398   7.307   8.930   2.021
21517SOL    HW269399   7.181   8.878   1.955
21518SOL     OW69400   6.066   9.222   2.177
21518SOL    HW169401   6.109   9.284   2.236
21518SOL    HW269402   6.138   9.185   2.125
21519SOL     OW69403   6.941   7.579   2.324
21519SOL    HW169404   6.927   7.551   2.233
21519SOL    HW269405   7.018   7.636   2.319
21520SOL     OW69406   5.867   9.246   3.056
21520SOL    HW169407   5.956   9.231   3.088
21520SOL    HW269408   5.876   9.256   2.962
21521SOL     OW69409   6.526   9.122   2.748
21521SOL    HW169410   6.616   9.090   2.743
21521SOL    HW269411   6.482   9.084   2.672
21522SOL     OW69412   5.986   8.189   2.398
21522SOL    HW169413   6.019   8.103   2.426
21522SOL    HW269414   5.891   8.180   2.399
21523SOL     OW69415   6.172   7.544   1.952
21523SOL    HW169416   6.241   7.599   1.915
21523SOL    HW269417   6.137   7.496   1.877
21524SOL     OW69418   6.354   7.680   3.566
21524SOL    HW169419   6.447   7.659   3.573
21524SOL    HW269420   6.351   7.776   3.572
21525SOL     OW69421   6.440   8.907   3.054
21525SOL    HW169422   6.421   8.881   2.964
21525SOL    HW269423   6.535   8.915   3.058
21526SOL     OW69424   6.900   8.077   3.321
21526SOL    HW169425   6.976   8.069   3.378
21526SOL    HW269426   6.914   8.158   3.273
21527SOL     OW69427   6.395   8.796   2.803
21527SOL    HW169428   6.482   8.807   2.765
21527SOL    HW269429   6.335   8.812   2.731
21528SOL     OW69430   6.518   7.906   2.776
21528SOL    HW169431   6.483   7.897   2.687
21528SOL    HW269432   6.564   7.823   2.791
21529SOL     OW69433   6.144   7.568   2.433
21529SOL    HW169434   6.056   7.536   2.451
21529SOL    HW269435   6.135   7.620   2.353
21530SOL     OW69436   7.000   8.606   1.876
21530SOL    HW169437   7.050   8.560   1.943
21530SOL    HW269438   6.945   8.667   1.925
21531SOL     OW69439   5.888   7.534   1.994
21531SOL    HW169440   5.886   7.597   1.922
21531SOL    HW269441   5.982   7.523   2.013
21532SOL     OW69442   6.533   7.682   2.297
21532SOL    HW169443   6.510   7.722   2.212
21532SOL    HW269444   6.621   7.717   2.316
21533SOL     OW69445   6.615   8.097   3.339
21533SOL    HW169446   6.614   8.143   3.255
21533SOL    HW269447   6.707   8.078   3.355
21534SOL     OW69448   6.787   9.054   2.673
21534SOL    HW169449   6.797   9.107   2.594
21534SOL    HW269450   6.856   9.084   2.732
21535SOL     OW69451   6.034   8.592   2.556
21535SOL    HW169452   5.962   8.589   2.619
21535SOL    HW269453   5.993   8.578   2.471
21536SOL     OW69454   6.816   9.240   2.470
21536SOL    HW169455   6.857   9.285   2.395
21536SOL    HW269456   6.763   9.307   2.511
21537SOL     OW69457   6.652   7.958   1.926
21537SOL    HW169458   6.615   8.041   1.896
21537SOL    HW269459   6.718   7.984   1.990
21538SOL     OW69460   5.715   7.988   3.221
21538SOL    HW169461   5.805   8.010   3.199
21538SOL    HW269462   5.687   8.057   3.281
21539SOL     OW69463   6.132   7.688   3.046
21539SOL    HW169464   6.172   7.666   3.130
21539SOL    HW269465   6.038   7.681   3.063
21540SOL     OW69466   6.387   7.800   2.501
21540SOL    HW169467   6.348   7.873   2.453
21540SOL    HW269468   6.455   7.767   2.442
21541SOL     OW69469   6.537   7.530   2.580
21541SOL    HW169470   6.593   7.540   2.503
21541SOL    HW269471   6.559   7.443   2.615
21542SOL     OW69472   7.052   8.625   2.663
21542SOL    HW169473   6.991   8.604   2.593
21542SOL    HW269474   7.132   8.652   2.618
21543SOL     OW69475   7.014   8.082   2.875
21543SOL    HW169476   6.976   7.997   2.855
21543SOL    HW269477   7.096   8.062   2.920
21544SOL     OW69478   7.491   8.188   2.194
21544SOL    HW169479   7.560   8.189   2.127
21544SOL    HW269480   7.426   8.126   2.160
21545SOL     OW69481   6.057   8.908   2.038
21545SOL    HW169482   5.995   8.846   2.079
21545SOL    HW269483   6.018   8.927   1.953
21546SOL     OW69484   7.265   8.713   2.514
21546SOL    HW169485   7.357   8.699   2.539
21546SOL    HW269486   7.251   8.807   2.523
21547SOL     OW69487   6.980   8.039   1.896
21547SOL    HW169488   6.944   8.015   1.982
21547SOL    HW269489   7.075   8.035   1.908
21548SOL     OW69490   6.115   7.683   2.190
21548SOL    HW169491   6.142   7.652   2.103
21548SOL    HW269492   6.085   7.772   2.174
21549SOL     OW69493   7.337   8.722   3.427
21549SOL    HW169494   7.412   8.667   3.407
21549SOL    HW269495   7.374   8.803   3.460
21550SOL     OW69496   6.674   8.772   3.176
21550SOL    HW169497   6.593   8.766   3.227
21550SOL    HW269498   6.740   8.729   3.231
21551SOL     OW69499   7.195   9.128   3.524
21551SOL    HW169500   7.194   9.209   3.473
21551SOL    HW269501   7.273   9.082   3.494
21552SOL     OW69502   6.684   8.626   2.940
21552SOL    HW169503   6.668   8.681   3.016
21552SOL    HW269504   6.677   8.686   2.865
21553SOL     OW69505   7.139   8.540   2.913
21553SOL    HW169506   7.229   8.572   2.917
21553SOL    HW269507   7.110   8.561   2.825
21554SOL     OW69508   6.552   8.546   3.584
21554SOL    HW169509   6.468   8.576   3.620
21554SOL    HW269510   6.527   8.488   3.511
21555SOL     OW69511   6.294   8.508   2.258
21555SOL    HW169512   6.324   8.598   2.253
21555SOL    HW269513   6.371   8.456   2.234
21556SOL     OW69514   6.020   8.305   3.149
21556SOL    HW169515   6.082   8.318   3.220
21556SOL    HW269516   6.003   8.211   3.148
21557SOL     OW69517   6.877   7.866   3.148
21557SOL    HW169518   6.876   7.937   3.212
21557SOL    HW269519   6.938   7.896   3.080
21558SOL     OW69520   5.677   9.057   3.248
21558SOL    HW169521   5.643   9.102   3.171
21558SOL    HW269522   5.768   9.037   3.225
21559SOL     OW69523   5.953   8.507   2.288
21559SOL    HW169524   5.920   8.595   2.269
21559SOL    HW269525   5.934   8.457   2.209
21560SOL     OW69526   6.139   7.944   2.716
21560SOL    HW169527   6.129   7.956   2.622
21560SOL    HW269528   6.200   8.013   2.743
21561SOL     OW69529   6.843   8.807   2.285
21561SOL    HW169530   6.899   8.878   2.318
21561SOL    HW269531   6.754   8.837   2.302
21562SOL     OW69532   6.888   8.883   3.036
21562SOL    HW169533   6.949   8.901   3.107
21562SOL    HW269534   6.809   8.851   3.079
21563SOL     OW69535   7.227   8.025   2.353
21563SOL    HW169536   7.236   8.116   2.382
21563SOL    HW269537   7.267   8.024   2.266
21564SOL     OW69538   5.918   8.935   3.181
21564SOL    HW169539   5.908   8.906   3.090
21564SOL    HW269540   6.010   8.959   3.187
21565SOL     OW69541   6.054   8.167   3.521
21565SOL    HW169542   6.087   8.233   3.461
21565SOL    HW269543   6.132   8.123   3.555
21566SOL     OW69544   7.135   8.140   3.465
21566SOL    HW169545   7.087   8.219   3.488
21566SOL    HW269546   7.217   8.171   3.428
21567SOL     OW69547   6.615   7.621   3.625
21567SOL    HW169548   6.685   7.685   3.609
21567SOL    HW269549   6.643   7.543   3.576
21568SOL     OW69550   6.085   7.482   3.616
21568SOL    HW169551   6.035   7.419   3.565
21568SOL    HW269552   6.072   7.566   3.572
21569SOL     OW69553   6.145   8.358   2.906
21569SOL    HW169554   6.203   8.434   2.906
21569SOL    HW269555   6.104   8.358   2.992
21570SOL     OW69556   6.800   8.256   2.914
21570SOL    HW169557   6.836   8.345   2.922
21570SOL    HW269558   6.877   8.201   2.899
21571SOL     OW69559   6.837   8.009   2.130
21571SOL    HW169560   6.816   7.961   2.210
21571SOL    HW269561   6.852   8.099   2.158
21572SOL     OW69562   5.859   7.657   3.109
21572SOL    HW169563   5.822   7.685   3.193
21572SOL    HW269564   5.842   7.563   3.106
21573SOL     OW69565   5.612   8.784   3.176
21573SOL    HW169566   5.645   8.726   3.245
21573SOL    HW269567   5.637   8.872   3.205
21574SOL     OW69568   6.288   8.127   2.857
21574SOL    HW169569   6.379   8.152   2.838
21574SOL    HW269570   6.242   8.211   2.866
21575SOL     OW69571   7.294   8.334   3.668
21575SOL    HW169572   7.303   8.342   3.573
21575SOL    HW269573   7.244   8.411   3.694
21576SOL     OW69574   5.858   7.529   2.470
21576SOL    HW169575   5.872   7.608   2.521
21576SOL    HW269576   5.770   7.538   2.434
21577SOL     OW69577   7.145   7.761   2.300
21577SOL    HW169578   7.215   7.708   2.339
21577SOL    HW269579   7.169   7.851   2.320
21578SOL     OW69580   6.562   8.177   2.800
21578SOL    HW169581   6.644   8.201   2.843
21578SOL    HW269582   6.562   8.081   2.801
21579SOL     OW69583   6.560   9.011   3.599
21579SOL    HW169584   6.552   9.058   3.516
21579SOL    HW269585   6.603   8.928   3.576
21580SOL     OW69586   7.435   9.020   3.402
21580SOL    HW169587   7.458   9.112   3.389
21580SOL    HW269588   7.505   8.986   3.458
21581SOL     OW69589   5.913   8.326   3.706
21581SOL    HW169590   5.986   8.374   3.745
21581SOL    HW269591   5.954   8.270   3.640
21582SOL     OW69592   7.166   7.754   2.020
21582SOL    HW169593   7.142   7.742   2.112
21582SOL    HW269594   7.227   7.828   2.020
21583SOL     OW69595   6.843   8.279   1.862
21583SOL    HW169596   6.887   8.194   1.863
21583SOL    HW269597   6.870   8.319   1.780
21584SOL     OW69598   6.658   8.811   2.730
21584SOL    HW169599   6.669   8.743   2.663
21584SOL    HW269600   6.714   8.883   2.700
21585SOL     OW69601   5.891   8.294   2.811
21585SOL    HW169602   5.981   8.326   2.825
21585SOL    HW269603   5.896   8.200   2.828
21586SOL     OW69604   5.915   8.016   2.855
21586SOL    HW169605   5.853   7.946   2.833
21586SOL    HW269606   5.994   7.995   2.805
21587SOL     OW69607   6.804   7.816   3.573
21587SOL    HW169608   6.757   7.884   3.621
21587SOL    HW269609   6.897   7.840   3.582
21588SOL     OW69610   6.790   7.669   3.335
21588SOL    HW169611   6.792   7.720   3.416
21588SOL    HW269612   6.833   7.725   3.271
21589SOL     OW69613   5.595   8.748   2.065
21589SOL    HW169614   5.508   8.766   2.029
21589SOL    HW269615   5.588   8.660   2.102
21590SOL     OW69616   5.674   9.214   2.791
21590SOL    HW169617   5.651   9.148   2.725
21590SOL    HW269618   5.766   9.234   2.774
21591SOL     OW69619   6.072   9.005   2.762
21591SOL    HW169620   6.144   9.064   2.785
21591SOL    HW269621   6.111   8.941   2.702
21592SOL     OW69622   6.613   8.258   3.122
21592SOL    HW169623   6.680   8.263   3.054
21592SOL    HW269624   6.575   8.346   3.124
21593SOL     OW69625   5.607   7.969   2.967
21593SOL    HW169626   5.604   8.057   2.929
21593SOL    HW269627   5.636   7.983   3.057
21594SOL     OW69628   5.814   8.019   3.548
21594SOL    HW169629   5.900   8.060   3.537
21594SOL    HW269630   5.754   8.078   3.503
21595SOL     OW69631   6.983   8.367   3.499
21595SOL    HW169632   7.015   8.457   3.506
21595SOL    HW269633   6.964   8.354   3.406
21596SOL     OW69634   6.355   7.972   2.274
21596SOL    HW169635   6.383   7.920   2.199
21596SOL    HW269636   6.303   8.043   2.236
21597SOL     OW69637   7.229   7.963   3.001
21597SOL    HW169638   7.245   7.924   3.087
21597SOL    HW269639   7.316   7.989   2.969
21598SOL     OW69640   5.784   9.007   3.558
21598SOL    HW169641   5.797   9.069   3.631
21598SOL    HW269642   5.803   8.921   3.596
21599SOL     OW69643   6.225   7.961   3.069
21599SOL    HW169644   6.211   7.874   3.032
21599SOL    HW269645   6.251   8.015   2.995
21600SOL     OW69646   6.541   9.103   3.333
21600SOL    HW169647   6.477   9.070   3.270
21600SOL    HW269648   6.546   9.197   3.317
21601SOL     OW69649   6.015   7.947   2.170
21601SOL    HW169650   6.066   8.028   2.162
21601SOL    HW269651   5.936   7.963   2.118
21602SOL     OW69652   5.695   8.599   3.371
21602SOL    HW169653   5.707   8.566   3.461
21602SOL    HW269654   5.715   8.523   3.316
21603SOL     OW69655   6.904   8.503   3.047
21603SOL    HW169656   6.983   8.529   3.001
21603SOL    HW269657   6.833   8.552   3.005
21604SOL     OW69658   6.895   8.287   2.135
21604SOL    HW169659   6.843   8.354   2.178
21604SOL    HW269660   6.875   8.296   2.042
21605SOL     OW69661   7.278   9.160   2.922
21605SOL    HW169662   7.336   9.234   2.905
21605SOL    HW269663   7.319   9.087   2.875
21606SOL     OW69664   6.829   9.147   2.962
21606SOL    HW169665   6.904   9.183   2.914
21606SOL    HW269666   6.856   9.059   2.987
21607SOL     OW69667   5.659   8.731   2.898
21607SOL    HW169668   5.650   8.739   2.993
21607SOL    HW269669   5.589   8.786   2.863
21608SOL     OW69670   6.279   9.098   3.640
21608SOL    HW169671   6.216   9.169   3.627
21608SOL    HW269672   6.364   9.135   3.618
21609SOL     OW69673   7.310   7.571   2.411
21609SOL    HW169674   7.374   7.536   2.350
21609SOL    HW269675   7.267   7.494   2.448
21610SOL     OW69676   6.981   9.025   2.396
21610SOL    HW169677   7.020   9.050   2.312
21610SOL    HW269678   6.925   9.099   2.420
21611SOL     OW69679   5.747   9.238   3.709
21611SOL    HW169680   5.698   9.179   3.767
21611SOL    HW269681   5.794   9.296   3.769
21612SOL     OW69682   6.827   8.379   2.516
21612SOL    HW169683   6.898   8.326   2.553
21612SOL    HW269684   6.871   8.445   2.463
21613SOL     OW69685   6.419   8.740   3.284
21613SOL    HW169686   6.379   8.777   3.363
21613SOL    HW269687   6.396   8.801   3.214
21614SOL     OW69688   6.261   9.089   2.021
21614SOL    HW169689   6.269   9.119   1.930
21614SOL    HW269690   6.192   9.023   2.019
21615SOL     OW69691   7.234   9.129   3.193
21615SOL    HW169692   7.237   9.157   3.101
21615SOL    HW269693   7.227   9.210   3.243
21616SOL     OW69694   7.511   7.540   2.824
21616SOL    HW169695   7.556   7.462   2.855
21616SOL    HW269696   7.462   7.512   2.747
21617SOL     OW69697   5.847   7.770   2.598
21617SOL    HW169698   5.767   7.809   2.564
21617SOL    HW269699   5.832   7.762   2.693
21618SOL     OW69700   6.792   9.029   1.887
21618SOL    HW169701   6.884   9.054   1.891
21618SOL    HW269702   6.766   9.051   1.797
21619SOL     OW69703   6.450   8.486   3.180
21619SOL    HW169704   6.416   8.503   3.092
21619SOL    HW269705   6.448   8.572   3.223
21620SOL     OW69706   6.465   8.320   2.155
21620SOL    HW169707   6.517   8.358   2.085
21620SOL    HW269708   6.525   8.260   2.200
21621SOL     OW69709   7.052   9.111   1.882
21621SOL    HW169710   7.035   9.205   1.884
21621SOL    HW269711   7.098   9.097   1.799
21622SOL     OW69712   5.941   8.730   3.368
21622SOL    HW169713   5.940   8.802   3.304
21622SOL    HW269714   5.854   8.691   3.360
21623SOL     OW69715   6.642   8.572   2.594
21623SOL    HW169716   6.567   8.521   2.624
21623SOL    HW269717   6.705   8.507   2.563
21624SOL     OW69718   6.625   7.656   2.810
21624SOL    HW169719   6.611   7.618   2.723
21624SOL    HW269720   6.616   7.582   2.870
21625SOL     OW69721   6.226   8.923   2.346
21625SOL    HW169722   6.280   8.865   2.292
21625SOL    HW269723   6.164   8.962   2.284
21626SOL     OW69724   7.350   7.833   3.227
21626SOL    HW169725   7.416   7.902   3.232
21626SOL    HW269726   7.388   7.768   3.167
21627SOL     OW69727   5.819   8.741   2.237
21627SOL    HW169728   5.752   8.758   2.171
21627SOL    HW269729   5.801   8.805   2.306
21628SOL     OW69730   5.715   8.507   3.630
21628SOL    HW169731   5.632   8.476   3.666
21628SOL    HW269732   5.778   8.440   3.658
21629SOL     OW69733   6.243   7.663   3.315
21629SOL    HW169734   6.295   7.737   3.285
21629SOL    HW269735   6.275   7.646   3.403
21630SOL     OW69736   5.659   7.793   1.897
21630SOL    HW169737   5.605   7.808   1.820
21630SOL    HW269738   5.692   7.880   1.921
21631SOL     OW69739   6.992   8.314   3.222
21631SOL    HW169740   6.947   8.375   3.163
21631SOL    HW269741   7.084   8.319   3.195
21632SOL     OW69742   5.645   7.596   2.101
21632SOL    HW169743   5.621   7.661   2.035
21632SOL    HW269744   5.735   7.571   2.077
21633SOL     OW69745   6.826   8.780   2.001
21633SOL    HW169746   6.808   8.870   1.973
21633SOL    HW269747   6.834   8.785   2.096
21634SOL     OW69748   6.190   8.351   3.362
21634SOL    HW169749   6.181   8.446   3.357
21634SOL    HW269750   6.284   8.336   3.374
21635SOL     OW69751   7.037   9.209   2.795
21635SOL    HW169752   7.057   9.292   2.753
21635SOL    HW269753   7.117   9.186   2.843
21636SOL     OW69754   6.398   7.950   3.603
21636SOL    HW169755   6.385   8.044   3.617
21636SOL    HW269756   6.487   7.934   3.635
21637SOL     OW69757   7.080   8.624   3.488
21637SOL    HW169758   7.064   8.656   3.577
21637SOL    HW269759   7.163   8.663   3.462
21638SOL     OW69760   5.942   9.185   3.402
21638SOL    HW169761   5.870   9.248   3.397
21638SOL    HW269762   5.901   9.105   3.435
21639SOL     OW69763   7.254   8.374   3.127
21639SOL    HW169764   7.346   8.363   3.106
21639SOL    HW269765   7.219   8.430   3.057
21640SOL     OW69766   6.771   7.790   2.374
21640SOL    HW169767   6.835   7.722   2.353
21640SOL    HW269768   6.809   7.837   2.448
21641SOL     OW69769   7.369   7.755   3.495
21641SOL    HW169770   7.455   7.713   3.486
21641SOL    HW269771   7.355   7.799   3.411
21642SOL     OW69772   7.325   8.353   3.397
21642SOL    HW169773   7.408   8.401   3.394
21642SOL    HW269774   7.288   8.365   3.309
21643SOL     OW69775   6.424   8.866   1.948
21643SOL    HW169776   6.386   8.950   1.972
21643SOL    HW269777   6.464   8.881   1.863
21644SOL     OW69778   6.258   9.194   2.803
21644SOL    HW169779   6.245   9.289   2.802
21644SOL    HW269780   6.353   9.183   2.798
21645SOL     OW69781   6.439   8.415   2.722
21645SOL    HW169782   6.489   8.339   2.751
21645SOL    HW269783   6.423   8.465   2.801
21646SOL     OW69784   6.611   8.407   1.941
21646SOL    HW169785   6.592   8.477   1.879
21646SOL    HW269786   6.696   8.373   1.913
21647SOL     OW69787   7.394   8.967   2.755
21647SOL    HW169788   7.324   8.969   2.690
21647SOL    HW269789   7.474   8.958   2.703
21648SOL     OW69790   5.819   8.758   3.711
21648SOL    HW169791   5.793   8.674   3.673
21648SOL    HW269792   5.753   8.776   3.777
21649SOL     OW69793   5.650   8.670   2.536
21649SOL    HW169794   5.716   8.634   2.596
21649SOL    HW269795   5.690   8.749   2.501
21650SOL     OW69796   6.295   8.853   3.501
21650SOL    HW169797   6.213   8.814   3.532
21650SOL    HW269798   6.298   8.940   3.542
21651SOL     OW69799   7.449   7.623   3.079
21651SOL    HW169800   7.536   7.632   3.117
21651SOL    HW269801   7.465   7.610   2.985
21652SOL     OW69802   6.047   7.922   2.454
21652SOL    HW169803   6.040   7.912   2.359
21652SOL    HW269804   5.980   7.863   2.489
21653SOL     OW69805   7.291   8.862   2.987
21653SOL    HW169806   7.201   8.859   2.954
21653SOL    HW269807   7.344   8.886   2.911
21654SOL     OW69808   5.966   8.035   3.124
21654SOL    HW169809   6.057   8.006   3.126
21654SOL    HW269810   5.943   8.033   3.031
21655SOL     OW69811   6.415   9.064   2.503
21655SOL    HW169812   6.416   9.151   2.463
21655SOL    HW269813   6.346   9.017   2.457
21656SOL     OW69814   6.964   7.598   3.029
21656SOL    HW169815   7.003   7.531   2.973
21656SOL    HW269816   7.027   7.608   3.100
21657SOL     OW69817   6.658   7.491   3.021
21657SOL    HW169818   6.625   7.447   3.099
21657SOL    HW269819   6.722   7.430   2.984
21658SOL     OW69820   6.399   8.757   2.203
21658SOL    HW169821   6.409   8.783   2.112
21658SOL    HW269822   6.476   8.793   2.247
21659SOL     OW69823   6.193   8.955   3.160
21659SOL    HW169824   6.194   9.042   3.201
21659SOL    HW269825   6.275   8.951   3.110
21660SOL     OW69826   6.904   7.511   2.065
21660SOL    HW169827   6.923   7.520   1.971
21660SOL    HW269828   6.841   7.439   2.069
21661SOL     OW69829   6.887   7.924   2.589
21661SOL    HW169830   6.848   8.010   2.575
21661SOL    HW269831   6.981   7.939   2.586
21662SOL     OW69832   7.168   7.635   2.720
21662SOL    HW169833   7.216   7.711   2.752
21662SOL    HW269834   7.176   7.640   2.624
21663SOL     OW69835   5.613   8.514   2.216
21663SOL    HW169836   5.693   8.547   2.257
21663SOL    HW269837   5.632   8.421   2.198
21664SOL     OW69838   6.478   9.128   2.190
21664SOL    HW169839   6.405   9.122   2.128
21664SOL    HW269840   6.454   9.199   2.249
21665SOL     OW69841   5.765   8.019   3.853
21665SOL    HW169842   5.686   8.055   3.893
21665SOL    HW269843   5.776   8.067   3.771
21666SOL     OW69844   5.585   7.823   4.373
21666SOL    HW169845   5.507   7.866   4.408
21666SOL    HW269846   5.553   7.740   4.337
21667SOL     OW69847   7.167   8.947   4.413
21667SOL    HW169848   7.128   8.940   4.500
21667SOL    HW269849   7.093   8.969   4.355
21668SOL     OW69850   7.314   8.037   3.963
21668SOL    HW169851   7.311   8.055   3.869
21668SOL    HW269852   7.404   8.008   3.978
21669SOL     OW69853   6.187   8.589   4.765
21669SOL    HW169854   6.145   8.627   4.842
21669SOL    HW269855   6.256   8.651   4.742
21670SOL     OW69856   6.491   8.202   5.535
21670SOL    HW169857   6.511   8.273   5.596
21670SOL    HW269858   6.490   8.244   5.449
21671SOL     OW69859   6.287   8.465   4.336
21671SOL    HW169860   6.367   8.451   4.385
21671SOL    HW269861   6.240   8.534   4.385
21672SOL     OW69862   6.247   8.562   5.545
21672SOL    HW169863   6.284   8.649   5.528
21672SOL    HW269864   6.162   8.563   5.502
21673SOL     OW69865   7.016   8.953   5.105
21673SOL    HW169866   7.076   9.028   5.111
21673SOL    HW269867   6.942   8.977   5.160
21674SOL     OW69868   6.086   7.872   5.175
21674SOL    HW169869   6.160   7.932   5.166
21674SOL    HW269870   6.125   7.785   5.178
21675SOL     OW69871   7.177   7.884   4.463
21675SOL    HW169872   7.180   7.941   4.386
21675SOL    HW269873   7.136   7.938   4.531
21676SOL     OW69874   5.809   9.172   4.214
21676SOL    HW169875   5.818   9.250   4.269
21676SOL    HW269876   5.891   9.168   4.165
21677SOL     OW69877   6.716   8.785   5.405
21677SOL    HW169878   6.762   8.783   5.489
21677SOL    HW269879   6.669   8.702   5.401
21678SOL     OW69880   5.759   8.911   4.292
21678SOL    HW169881   5.781   9.002   4.272
21678SOL    HW269882   5.696   8.916   4.364
21679SOL     OW69883   5.892   8.628   4.646
21679SOL    HW169884   5.960   8.647   4.710
21679SOL    HW269885   5.810   8.641   4.693
21680SOL     OW69886   6.126   8.438   3.841
21680SOL    HW169887   6.181   8.496   3.789
21680SOL    HW269888   6.169   8.432   3.926
21681SOL     OW69889   7.164   7.582   5.197
21681SOL    HW169890   7.225   7.647   5.160
21681SOL    HW269891   7.139   7.620   5.281
21682SOL     OW69892   5.717   8.164   4.308
21682SOL    HW169893   5.696   8.071   4.298
21682SOL    HW269894   5.692   8.185   4.398
21683SOL     OW69895   7.459   9.198   4.075
21683SOL    HW169896   7.543   9.190   4.120
21683SOL    HW269897   7.463   9.284   4.032
21684SOL     OW69898   5.634   9.040   3.856
21684SOL    HW169899   5.618   8.947   3.875
21684SOL    HW269900   5.602   9.085   3.934
21685SOL     OW69901   7.200   8.304   4.362
21685SOL    HW169902   7.252   8.338   4.435
21685SOL    HW269903   7.218   8.364   4.290
21686SOL     OW69904   7.220   8.536   4.174
21686SOL    HW169905   7.305   8.536   4.129
21686SOL    HW269906   7.234   8.592   4.250
21687SOL     OW69907   5.755   8.189   5.332
21687SOL    HW169908   5.850   8.204   5.330
21687SOL    HW269909   5.719   8.267   5.373
21688SOL     OW69910   6.188   8.864   4.468
21688SOL    HW169911   6.152   8.775   4.466
21688SOL    HW269912   6.169   8.900   4.382
21689SOL     OW69913   6.904   8.635   5.137
21689SOL    HW169914   6.862   8.574   5.078
21689SOL    HW269915   6.983   8.664   5.090
21690SOL     OW69916   6.427   7.468   4.249
21690SOL    HW169917   6.478   7.543   4.218
21690SOL    HW269918   6.336   7.497   4.247
21691SOL     OW69919   5.842   8.493   4.954
21691SOL    HW169920   5.910   8.559   4.947
21691SOL    HW269921   5.773   8.522   4.894
21692SOL     OW69922   7.105   8.455   3.932
21692SOL    HW169923   7.164   8.381   3.919
21692SOL    HW269924   7.136   8.497   4.012
21693SOL     OW69925   6.778   9.275   5.368
21693SOL    HW169926   6.776   9.350   5.308
21693SOL    HW269927   6.792   9.199   5.311
21694SOL     OW69928   5.931   7.674   5.613
21694SOL    HW169929   5.985   7.751   5.633
21694SOL    HW269930   5.842   7.709   5.605
21695SOL     OW69931   7.088   8.864   4.668
21695SOL    HW169932   7.022   8.898   4.727
21695SOL    HW269933   7.056   8.777   4.643
21696SOL     OW69934   7.309   9.168   4.315
21696SOL    HW169935   7.359   9.147   4.236
21696SOL    HW269936   7.264   9.086   4.337
21697SOL     OW69937   6.222   8.142   3.937
21697SOL    HW169938   6.278   8.168   3.864
21697SOL    HW269939   6.213   8.221   3.991
21698SOL     OW69940   7.178   9.201   3.992
21698SOL    HW169941   7.269   9.177   4.008
21698SOL    HW269942   7.153   9.151   3.915
21699SOL     OW69943   6.318   8.023   5.164
21699SOL    HW169944   6.339   8.005   5.255
21699SOL    HW269945   6.403   8.042   5.123
21700SOL     OW69946   7.005   7.975   5.385
21700SOL    HW169947   6.987   7.999   5.477
21700SOL    HW269948   7.083   8.026   5.362
21701SOL     OW69949   6.502   8.310   5.279
21701SOL    HW169950   6.543   8.239   5.230
21701SOL    HW269951   6.456   8.362   5.214
21702SOL     OW69952   6.567   8.174   4.267
21702SOL    HW169953   6.656   8.208   4.265
21702SOL    HW269954   6.520   8.234   4.325
21703SOL     OW69955   5.669   8.205   4.577
21703SOL    HW169956   5.750   8.225   4.624
21703SOL    HW269957   5.622   8.289   4.573
21704SOL     OW69958   5.578   9.201   5.308
21704SOL    HW169959   5.635   9.205   5.384
21704SOL    HW269960   5.588   9.287   5.266
21705SOL     OW69961   6.539   7.719   3.880
21705SOL    HW169962   6.553   7.812   3.863
21705SOL    HW269963   6.585   7.674   3.810
21706SOL     OW69964   7.244   8.014   5.596
21706SOL    HW169965   7.237   8.091   5.539
21706SOL    HW269966   7.292   7.950   5.543
21707SOL     OW69967   6.936   8.563   4.242
21707SOL    HW169968   7.027   8.560   4.212
21707SOL    HW269969   6.900   8.642   4.202
21708SOL     OW69970   6.151   7.627   4.656
21708SOL    HW169971   6.144   7.636   4.751
21708SOL    HW269972   6.179   7.713   4.625
21709SOL     OW69973   6.577   8.925   4.214
21709SOL    HW169974   6.564   8.999   4.155
21709SOL    HW269975   6.543   8.955   4.298
21710SOL     OW69976   5.932   9.288   4.615
21710SOL    HW169977   5.999   9.221   4.603
21710SOL    HW269978   5.980   9.366   4.643
21711SOL     OW69979   7.341   8.433   4.568
21711SOL    HW169980   7.382   8.508   4.526
21711SOL    HW269981   7.308   8.467   4.651
21712SOL     OW69982   6.779   9.011   5.244
21712SOL    HW169983   6.769   8.930   5.294
21712SOL    HW269984   6.690   9.034   5.216
21713SOL     OW69985   5.940   8.281   4.021
21713SOL    HW169986   5.987   8.317   3.946
21713SOL    HW269987   5.848   8.291   3.999
21714SOL     OW69988   6.973   8.180   4.465
21714SOL    HW169989   6.999   8.140   4.548
21714SOL    HW269990   7.053   8.222   4.433
21715SOL     OW69991   5.998   8.605   5.442
21715SOL    HW169992   6.021   8.690   5.405
21715SOL    HW269993   5.919   8.622   5.494
21716SOL     OW69994   6.751   9.189   3.998
21716SOL    HW169995   6.658   9.177   4.016
21716SOL    HW269996   6.766   9.140   3.917
21717SOL     OW69997   5.714   7.689   5.246
21717SOL    HW169998   5.632   7.735   5.227
21717SOL    HW269999   5.769   7.754   5.289
21718SOL     OW70000   7.187   8.827   3.858
21718SOL    HW170001   7.161   8.914   3.829
21718SOL    HW270002   7.125   8.768   3.814
21719SOL     OW70003   6.051   9.175   4.069
21719SOL    HW170004   6.088   9.245   4.124
21719SOL    HW270005   6.119   9.156   4.005
21720SOL     OW70006   6.995   7.503   4.179
21720SOL    HW170007   7.011   7.504   4.084
21720SOL    HW270008   7.078   7.477   4.217
21721SOL     OW70009   6.489   9.152   4.658
21721SOL    HW170010   6.500   9.088   4.728
21721SOL    HW270011   6.483   9.099   4.578
21722SOL     OW70012   7.102   7.712   5.438
21722SOL    HW170013   7.088   7.703   5.532
21722SOL    HW270014   7.060   7.796   5.415
21723SOL     OW70015   6.325   7.556   3.812
21723SOL    HW170016   6.398   7.597   3.858
21723SOL    HW270017   6.338   7.580   3.720
21724SOL     OW70018   6.358   7.700   5.429
21724SOL    HW170019   6.446   7.668   5.448
21724SOL    HW270020   6.368   7.795   5.426
21725SOL     OW70021   6.501   8.954   4.847
21725SOL    HW170022   6.442   8.889   4.811
21725SOL    HW270023   6.542   8.911   4.923
21726SOL     OW70024   6.861   8.055   5.156
21726SOL    HW170025   6.912   8.031   5.233
21726SOL    HW270026   6.894   8.142   5.132
21727SOL     OW70027   6.370   8.782   4.668
21727SOL    HW170028   6.458   8.783   4.630
21727SOL    HW270029   6.314   8.819   4.601
21728SOL     OW70030   6.158   7.537   4.211
21728SOL    HW170031   6.086   7.544   4.274
21728SOL    HW270032   6.158   7.621   4.165
21729SOL     OW70033   6.997   8.649   3.758
21729SOL    HW170034   7.022   8.578   3.817
21729SOL    HW270035   6.915   8.683   3.796
21730SOL     OW70036   6.573   7.685   4.158
21730SOL    HW170037   6.557   7.702   4.065
21730SOL    HW270038   6.664   7.709   4.171
21731SOL     OW70039   6.586   8.091   5.124
21731SOL    HW170040   6.575   8.079   5.030
21731SOL    HW270041   6.681   8.088   5.137
21732SOL     OW70042   6.769   9.033   4.540
21732SOL    HW170043   6.797   9.092   4.470
21732SOL    HW270044   6.787   9.082   4.620
21733SOL     OW70045   6.072   8.615   4.434
21733SOL    HW170046   6.014   8.612   4.510
21733SOL    HW270047   6.016   8.590   4.360
21734SOL     OW70048   6.830   9.235   4.356
21734SOL    HW170049   6.889   9.309   4.343
21734SOL    HW270050   6.749   9.275   4.389
21735SOL     OW70051   6.639   7.974   3.747
21735SOL    HW170052   6.620   8.067   3.735
21735SOL    HW270053   6.694   7.970   3.825
21736SOL     OW70054   5.654   8.046   5.116
21736SOL    HW170055   5.741   8.014   5.093
21736SOL    HW270056   5.669   8.108   5.187
21737SOL     OW70057   6.119   7.646   4.929
21737SOL    HW170058   6.146   7.614   5.015
21737SOL    HW270059   6.174   7.723   4.914
21738SOL     OW70060   6.581   7.908   4.363
21738SOL    HW170061   6.564   7.994   4.324
21738SOL    HW270062   6.547   7.846   4.299
21739SOL     OW70063   6.614   7.482   4.463
21739SOL    HW170064   6.545   7.485   4.396
21739SOL    HW270065   6.582   7.418   4.527
21740SOL     OW70066   7.051   8.610   4.560
21740SOL    HW170067   6.983   8.577   4.502
21740SOL    HW270068   7.126   8.627   4.503
21741SOL     OW70069   7.032   7.995   4.676
21741SOL    HW170070   7.017   7.915   4.725
21741SOL    HW270071   7.089   8.048   4.732
21742SOL     OW70072   7.393   8.262   4.101
21742SOL    HW170073   7.445   8.217   4.167
21742SOL    HW270074   7.369   8.194   4.039
21743SOL     OW70075   6.038   8.865   3.899
21743SOL    HW170076   5.991   8.834   3.976
21743SOL    HW270077   5.978   8.850   3.826
21744SOL     OW70078   7.263   8.686   4.398
21744SOL    HW170079   7.358   8.678   4.397
21744SOL    HW270080   7.247   8.780   4.398
21745SOL     OW70081   7.025   8.050   3.853
21745SOL    HW170082   6.947   8.016   3.898
21745SOL    HW270083   7.095   8.044   3.918
21746SOL     OW70084   6.164   7.740   4.013
21746SOL    HW170085   6.250   7.779   4.027
21746SOL    HW270086   6.105   7.814   4.003
21747SOL     OW70087   7.285   8.714   5.333
21747SOL    HW170088   7.354   8.658   5.300
21747SOL    HW270089   7.327   8.800   5.345
21748SOL     OW70090   6.610   8.772   5.038
21748SOL    HW170091   6.528   8.749   5.082
21748SOL    HW270092   6.678   8.753   5.102
21749SOL     OW70093   7.183   9.087   5.392
21749SOL    HW170094   7.176   9.122   5.303
21749SOL    HW270095   7.265   9.038   5.392
21750SOL     OW70096   6.737   8.694   4.806
21750SOL    HW170097   6.675   8.718   4.876
21750SOL    HW270098   6.694   8.723   4.725
21751SOL     OW70099   7.184   8.540   4.795
21751SOL    HW170100   7.165   8.606   4.862
21751SOL    HW270101   7.125   8.562   4.723
21752SOL     OW70102   6.496   7.522   5.124
21752SOL    HW170103   6.520   7.494   5.036
21752SOL    HW270104   6.569   7.576   5.153
21753SOL     OW70105   6.558   8.553   5.432
21753SOL    HW170106   6.471   8.593   5.438
21753SOL    HW270107   6.546   8.479   5.372
21754SOL     OW70108   6.248   8.385   4.080
21754SOL    HW170109   6.256   8.420   4.168
21754SOL    HW270110   6.338   8.362   4.055
21755SOL     OW70111   5.929   8.232   4.994
21755SOL    HW170112   6.016   8.244   5.033
21755SOL    HW270113   5.892   8.320   4.989
21756SOL     OW70114   6.778   7.844   4.997
21756SOL    HW170115   6.809   7.921   5.045
21756SOL    HW270116   6.692   7.871   4.963
21757SOL     OW70117   5.945   8.528   4.190
21757SOL    HW170118   5.911   8.614   4.163
21757SOL    HW270119   6.010   8.505   4.124
21758SOL     OW70120   6.171   7.944   4.591
21758SOL    HW170121   6.192   7.991   4.510
21758SOL    HW270122   6.223   7.987   4.658
21759SOL     OW70123   6.819   8.810   4.130
21759SOL    HW170124   6.883   8.878   4.152
21759SOL    HW270125   6.736   8.843   4.164
21760SOL     OW70126   6.897   8.918   4.858
21760SOL    HW170127   6.932   8.923   4.947
21760SOL    HW270128   6.845   8.838   4.857
21761SOL     OW70129   7.198   8.053   4.238
21761SOL    HW170130   7.201   8.139   4.281
21761SOL    HW270131   7.258   8.062   4.163
21762SOL     OW70132   6.028   8.208   5.347
21762SOL    HW170133   6.064   8.248   5.268
21762SOL    HW270134   6.104   8.176   5.395
21763SOL     OW70135   7.186   8.216   5.420
21763SOL    HW170136   7.110   8.273   5.412
21763SOL    HW270137   7.246   8.247   5.351
21764SOL     OW70138   6.609   7.618   5.514
21764SOL    HW170139   6.670   7.686   5.485
21764SOL    HW270140   6.643   7.537   5.476
21765SOL     OW70141   6.053   7.458   5.484
21765SOL    HW170142   6.003   7.415   5.415
21765SOL    HW270143   6.003   7.538   5.504
21766SOL     OW70144   6.136   8.335   4.676
21766SOL    HW170145   6.150   8.425   4.704
21766SOL    HW270146   6.208   8.285   4.716
21767SOL     OW70147   6.785   7.967   3.977
21767SOL    HW170148   6.791   7.908   4.052
21767SOL    HW270149   6.782   8.055   4.015
21768SOL     OW70150   5.756   7.651   4.976
21768SOL    HW170151   5.762   7.664   5.070
21768SOL    HW270152   5.805   7.570   4.960
21769SOL     OW70153   5.698   8.812   5.022
21769SOL    HW170154   5.722   8.738   5.078
21769SOL    HW270155   5.642   8.866   5.078
21770SOL     OW70156   6.329   8.121   4.753
21770SOL    HW170157   6.388   8.062   4.799
21770SOL    HW270158   6.382   8.199   4.735
21771SOL     OW70159   7.361   8.387   5.587
21771SOL    HW170160   7.295   8.335   5.541
21771SOL    HW270161   7.312   8.434   5.654
21772SOL     OW70162   5.919   7.533   4.361
21772SOL    HW170163   5.895   7.625   4.372
21772SOL    HW270164   5.925   7.500   4.451
21773SOL     OW70165   7.117   7.816   4.128
21773SOL    HW170166   7.181   7.755   4.165
21773SOL    HW270167   7.140   7.901   4.166
21774SOL     OW70168   6.542   8.985   5.474
21774SOL    HW170169   6.514   9.043   5.404
21774SOL    HW270170   6.595   8.918   5.431
21775SOL     OW70171   7.426   8.955   5.342
21775SOL    HW170172   7.459   8.981   5.256
21775SOL    HW270173   7.495   8.982   5.403
21776SOL     OW70174   5.948   8.262   5.627
21776SOL    HW170175   6.028   8.304   5.659
21776SOL    HW270176   5.949   8.278   5.533
21777SOL     OW70177   7.151   7.734   3.864
21777SOL    HW170178   7.098   7.655   3.865
21777SOL    HW270179   7.142   7.770   3.952
21778SOL     OW70180   6.883   8.273   3.744
21778SOL    HW170181   6.946   8.206   3.770
21778SOL    HW270182   6.919   8.310   3.663
21779SOL     OW70183   6.629   8.800   4.564
21779SOL    HW170184   6.648   8.767   4.476
21779SOL    HW270185   6.675   8.884   4.568
21780SOL     OW70186   5.902   8.202   4.722
21780SOL    HW170187   5.978   8.253   4.693
21780SOL    HW270188   5.901   8.212   4.817
21781SOL     OW70189   5.906   7.931   4.657
21781SOL    HW170190   5.891   8.025   4.669
21781SOL    HW270191   6.000   7.924   4.641
21782SOL     OW70192   6.757   7.835   5.419
21782SOL    HW170193   6.723   7.888   5.491
21782SOL    HW270194   6.841   7.876   5.396
21783SOL     OW70195   6.722   7.660   5.201
21783SOL    HW170196   6.735   7.721   5.274
21783SOL    HW270197   6.749   7.709   5.123
21784SOL     OW70198   5.607   8.763   3.893
21784SOL    HW170199   5.526   8.766   3.842
21784SOL    HW270200   5.595   8.688   3.952
21785SOL     OW70201   5.748   9.170   4.785
21785SOL    HW170202   5.678   9.235   4.789
21785SOL    HW270203   5.810   9.206   4.722
21786SOL     OW70204   6.066   9.003   4.690
21786SOL    HW170205   6.124   9.078   4.680
21786SOL    HW270206   6.092   8.943   4.620
21787SOL     OW70207   5.635   8.022   4.831
21787SOL    HW170208   5.633   8.092   4.766
21787SOL    HW270209   5.637   8.068   4.915
21788SOL     OW70210   5.846   7.909   5.338
21788SOL    HW170211   5.934   7.919   5.301
21788SOL    HW270212   5.818   7.998   5.356
21789SOL     OW70213   6.974   8.385   5.373
21789SOL    HW170214   6.990   8.479   5.374
21789SOL    HW270215   6.961   8.364   5.281
21790SOL     OW70216   6.388   7.988   4.106
21790SOL    HW170217   6.446   8.053   4.146
21790SOL    HW270218   6.332   8.040   4.047
21791SOL     OW70219   7.205   8.071   4.873
21791SOL    HW170220   7.194   8.041   4.963
21791SOL    HW270221   7.295   8.047   4.851
21792SOL     OW70222   5.789   8.911   5.446
21792SOL    HW170223   5.783   9.002   5.475
21792SOL    HW270224   5.880   8.899   5.420
21793SOL     OW70225   6.291   7.844   4.883
21793SOL    HW170226   6.377   7.832   4.842
21793SOL    HW270227   6.297   7.928   4.928
21794SOL     OW70228   6.511   9.095   5.216
21794SOL    HW170229   6.423   9.065   5.191
21794SOL    HW270230   6.516   9.185   5.183
21795SOL     OW70231   6.011   7.962   3.980
21795SOL    HW170232   6.073   8.031   3.958
21795SOL    HW270233   5.931   7.986   3.934
21796SOL     OW70234   5.728   8.581   5.193
21796SOL    HW170235   5.755   8.536   5.273
21796SOL    HW270236   5.781   8.541   5.124
21797SOL     OW70237   6.806   8.458   4.940
21797SOL    HW170238   6.760   8.383   4.902
21797SOL    HW270239   6.787   8.530   4.881
21798SOL     OW70240   6.801   8.232   4.038
21798SOL    HW170241   6.819   8.281   4.118
21798SOL    HW270242   6.842   8.284   3.968
21799SOL     OW70243   7.337   9.148   4.872
21799SOL    HW170244   7.403   9.195   4.822
21799SOL    HW270245   7.343   9.058   4.840
21800SOL     OW70246   6.836   9.172   4.773
21800SOL    HW170247   6.925   9.206   4.760
21800SOL    HW270248   6.849   9.086   4.813
21801SOL     OW70249   5.663   8.664   4.794
21801SOL    HW170250   5.683   8.718   4.871
21801SOL    HW270251   5.585   8.704   4.757
21802SOL     OW70252   6.248   9.129   5.459
21802SOL    HW170253   6.202   9.210   5.440
21802SOL    HW270254   6.226   9.071   5.386
21803SOL     OW70255   7.320   7.647   4.218
21803SOL    HW170256   7.379   7.624   4.146
21803SOL    HW270257   7.297   7.563   4.258
21804SOL     OW70258   6.975   9.032   4.218
21804SOL    HW170259   7.020   9.079   4.148
21804SOL    HW270260   6.916   9.097   4.257
21805SOL     OW70261   5.739   9.170   5.539
21805SOL    HW170262   5.690   9.124   5.607
21805SOL    HW270263   5.792   9.234   5.586
21806SOL     OW70264   6.804   8.326   4.302
21806SOL    HW170265   6.861   8.279   4.362
21806SOL    HW270266   6.847   8.411   4.290
21807SOL     OW70267   6.374   8.702   5.162
21807SOL    HW170268   6.358   8.743   5.247
21807SOL    HW270269   6.292   8.713   5.114
21808SOL     OW70270   6.248   9.048   3.910
21808SOL    HW170271   6.261   9.071   3.817
21808SOL    HW270272   6.184   8.978   3.909
21809SOL     OW70273   7.188   9.170   5.115
21809SOL    HW170274   7.245   9.160   5.039
21809SOL    HW270275   7.173   9.264   5.122
21810SOL     OW70276   7.409   7.616   4.701
21810SOL    HW170277   7.444   7.531   4.673
21810SOL    HW270278   7.325   7.623   4.656
21811SOL     OW70279   5.855   7.801   4.409
21811SOL    HW170280   5.761   7.813   4.397
21811SOL    HW270281   5.875   7.842   4.492
21812SOL     OW70282   6.796   9.048   3.764
21812SOL    HW170283   6.790   8.954   3.780
21812SOL    HW270284   6.729   9.066   3.697
21813SOL     OW70285   6.380   8.438   5.069
21813SOL    HW170286   6.419   8.440   4.982
21813SOL    HW270287   6.369   8.530   5.092
21814SOL     OW70288   6.492   8.293   4.007
21814SOL    HW170289   6.546   8.324   3.935
21814SOL    HW270290   6.555   8.261   4.071
21815SOL     OW70291   7.082   9.067   3.768
21815SOL    HW170292   6.988   9.076   3.755
21815SOL    HW270293   7.120   9.091   3.684
21816SOL     OW70294   7.141   8.727   5.007
21816SOL    HW170295   7.234   8.730   5.030
21816SOL    HW270296   7.105   8.809   5.040
21817SOL     OW70297   6.519   8.382   4.457
21817SOL    HW170298   6.507   8.364   4.550
21817SOL    HW270299   6.610   8.410   4.450
21818SOL     OW70300   6.722   7.648   4.659
21818SOL    HW170301   6.688   7.591   4.591
21818SOL    HW270302   6.644   7.684   4.702
21819SOL     OW70303   6.159   8.946   4.211
21819SOL    HW170304   6.220   8.902   4.152
21819SOL    HW270305   6.116   9.012   4.157
21820SOL     OW70306   7.368   7.838   5.161
21820SOL    HW170307   7.430   7.908   5.141
21820SOL    HW270308   7.373   7.779   5.086
21821SOL     OW70309   5.841   8.765   4.079
21821SOL    HW170310   5.766   8.780   4.022
21821SOL    HW270311   5.824   8.819   4.156
21822SOL     OW70312   5.692   8.432   5.460
21822SOL    HW170313   5.608   8.412   5.500
21822SOL    HW270314   5.721   8.512   5.502
21823SOL     OW70315   6.243   7.607   5.191
21823SOL    HW170316   6.328   7.587   5.153
21823SOL    HW270317   6.263   7.638   5.279
21824SOL     OW70318   5.666   7.770   3.782
21824SOL    HW170319   5.615   7.779   3.702
21824SOL    HW270320   5.690   7.860   3.805
21825SOL     OW70321   6.963   8.306   5.107
21825SOL    HW170322   6.903   8.355   5.051
21825SOL    HW270323   7.049   8.317   5.067
21826SOL     OW70324   5.643   7.623   4.017
21826SOL    HW170325   5.635   7.667   3.932
21826SOL    HW270326   5.695   7.683   4.071
21827SOL     OW70327   6.758   8.777   3.850
21827SOL    HW170328   6.662   8.780   3.845
21827SOL    HW270329   6.778   8.786   3.943
21828SOL     OW70330   6.173   8.259   5.117
21828SOL    HW170331   6.230   8.333   5.097
21828SOL    HW270332   6.232   8.184   5.122
21829SOL     OW70333   7.100   9.232   4.737
21829SOL    HW170334   7.123   9.311   4.688
21829SOL    HW270335   7.180   9.209   4.784
21830SOL     OW70336   6.422   7.966   5.412
21830SOL    HW170337   6.422   8.042   5.471
21830SOL    HW270338   6.513   7.961   5.381
21831SOL     OW70339   7.025   8.661   5.399
21831SOL    HW170340   6.972   8.678   5.322
21831SOL    HW270341   7.114   8.683   5.373
21832SOL     OW70342   7.202   8.330   4.972
21832SOL    HW170343   7.211   8.252   4.919
21832SOL    HW270344   7.204   8.403   4.909
21833SOL     OW70345   6.850   7.749   4.163
21833SOL    HW170346   6.874   7.657   4.176
21833SOL    HW270347   6.934   7.795   4.154
21834SOL     OW70348   6.091   8.289   4.410
21834SOL    HW170349   6.163   8.342   4.377
21834SOL    HW270350   6.096   8.299   4.506
21835SOL     OW70351   7.357   7.817   5.436
21835SOL    HW170352   7.372   7.832   5.342
21835SOL    HW270353   7.279   7.762   5.438
21836SOL     OW70354   7.320   8.340   5.221
21836SOL    HW170355   7.379   8.415   5.222
21836SOL    HW270356   7.286   8.337   5.132
21837SOL     OW70357   6.472   8.833   3.808
21837SOL    HW170358   6.421   8.874   3.878
21837SOL    HW270359   6.484   8.902   3.743
21838SOL     OW70360   6.217   9.221   4.629
21838SOL    HW170361   6.198   9.314   4.637
21838SOL    HW270362   6.311   9.213   4.648
21839SOL     OW70363   6.628   8.365   3.780
21839SOL    HW170364   6.619   8.442   3.724
21839SOL    HW270365   6.720   8.338   3.769
21840SOL     OW70366   7.436   8.957   4.511
21840SOL    HW170367   7.347   8.968   4.478
21840SOL    HW270368   7.425   8.933   4.603
21841SOL     OW70369   5.767   8.674   5.586
21841SOL    HW170370   5.753   8.749   5.528
21841SOL    HW270371   5.796   8.712   5.669
21842SOL     OW70372   5.707   8.629   4.431
21842SOL    HW170373   5.776   8.627   4.497
21842SOL    HW270374   5.698   8.721   4.408
21843SOL     OW70375   6.333   8.800   5.426
21843SOL    HW170376   6.260   8.843   5.382
21843SOL    HW270377   6.388   8.872   5.458
21844SOL     OW70378   7.359   7.638   4.971
21844SOL    HW170379   7.388   7.548   4.988
21844SOL    HW270380   7.376   7.652   4.878
21845SOL     OW70381   5.970   8.015   4.249
21845SOL    HW170382   5.991   7.984   4.160
21845SOL    HW270383   5.949   7.936   4.297
21846SOL     OW70384   7.344   8.885   4.771
21846SOL    HW170385   7.254   8.875   4.742
21846SOL    HW270386   7.348   8.837   4.854
21847SOL     OW70387   5.892   7.955   4.994
21847SOL    HW170388   5.959   7.919   5.052
21847SOL    HW270389   5.913   8.048   4.987
21848SOL     OW70390   6.414   9.049   4.407
21848SOL    HW170391   6.388   9.129   4.361
21848SOL    HW270392   6.332   9.003   4.424
21849SOL     OW70393   6.999   7.771   4.833
21849SOL    HW170394   7.060   7.735   4.898
21849SOL    HW270395   6.917   7.781   4.881
21850SOL     OW70396   6.588   7.427   4.885
21850SOL    HW170397   6.555   7.382   4.808
21850SOL    HW270398   6.682   7.439   4.868
21851SOL     OW70399   6.363   8.802   4.084
21851SOL    HW170400   6.386   8.710   4.071
21851SOL    HW270401   6.438   8.839   4.132
21852SOL     OW70402   7.001   7.501   3.894
21852SOL    HW170403   7.043   7.423   3.859
21852SOL    HW270404   6.907   7.481   3.892
21853SOL     OW70405   7.141   7.649   4.617
21853SOL    HW170406   7.086   7.692   4.683
21853SOL    HW270407   7.154   7.716   4.550
21854SOL     OW70408   5.618   8.557   4.085
21854SOL    HW170409   5.686   8.582   4.147
21854SOL    HW270410   5.638   8.465   4.064
21855SOL     OW70411   6.480   9.134   4.062
21855SOL    HW170412   6.401   9.115   4.010
21855SOL    HW270413   6.454   9.207   4.118
21856SOL     OW70414   5.795   8.033   5.698
21856SOL    HW170415   5.714   8.060   5.742
21856SOL    HW270416   5.836   8.116   5.671
21857SOL     OW70417   5.817   7.695   6.553
21857SOL    HW170418   5.832   7.661   6.642
21857SOL    HW270419   5.726   7.725   6.554
21858SOL     OW70420   5.575   7.875   6.284
21858SOL    HW170421   5.599   7.900   6.373
21858SOL    HW270422   5.479   7.877   6.283
21859SOL     OW70423   6.154   8.734   6.774
21859SOL    HW170424   6.087   8.757   6.710
21859SOL    HW270425   6.127   8.778   6.854
21860SOL     OW70426   7.137   8.982   6.287
21860SOL    HW170427   7.198   9.053   6.266
21860SOL    HW270428   7.076   8.981   6.213
21861SOL     OW70429   6.719   8.145   6.294
21861SOL    HW170430   6.768   8.223   6.271
21861SOL    HW270431   6.666   8.170   6.370
21862SOL     OW70432   7.372   8.029   5.836
21862SOL    HW170433   7.319   8.022   5.756
21862SOL    HW270434   7.462   8.016   5.807
21863SOL     OW70435   6.490   8.198   7.440
21863SOL    HW170436   6.488   8.243   7.524
21863SOL    HW270437   6.508   8.266   7.376
21864SOL     OW70438   6.264   8.405   6.265
21864SOL    HW170439   6.338   8.419   6.324
21864SOL    HW270440   6.199   8.470   6.293
21865SOL     OW70441   6.333   8.586   7.429
21865SOL    HW170442   6.371   8.665   7.468
21865SOL    HW270443   6.257   8.617   7.380
21866SOL     OW70444   5.944   8.853   6.634
21866SOL    HW170445   5.859   8.836   6.594
21866SOL    HW270446   5.982   8.924   6.582
21867SOL     OW70447   7.055   8.968   6.934
21867SOL    HW170448   7.104   9.049   6.950
21867SOL    HW270449   6.978   8.975   6.991
21868SOL     OW70450   6.036   7.834   7.130
21868SOL    HW170451   6.006   7.921   7.156
21868SOL    HW270452   5.957   7.781   7.130
21869SOL     OW70453   7.186   7.931   6.311
21869SOL    HW170454   7.175   7.971   6.225
21869SOL    HW270455   7.280   7.917   6.320
21870SOL     OW70456   5.818   9.154   6.032
21870SOL    HW170457   5.836   9.224   6.095
21870SOL    HW270458   5.901   9.143   5.985
21871SOL     OW70459   6.751   8.789   7.257
21871SOL    HW170460   6.754   8.854   7.327
21871SOL    HW270461   6.707   8.714   7.295
21872SOL     OW70462   5.708   8.912   6.114
21872SOL    HW170463   5.744   8.993   6.079
21872SOL    HW270464   5.683   8.933   6.204
21873SOL     OW70465   5.838   8.535   6.486
21873SOL    HW170466   5.828   8.452   6.533
21873SOL    HW270467   5.789   8.599   6.539
21874SOL     OW70468   6.145   9.202   6.986
21874SOL    HW170469   6.073   9.183   7.047
21874SOL    HW270470   6.219   9.225   7.042
21875SOL     OW70471   6.168   8.408   5.762
21875SOL    HW170472   6.202   8.458   5.688
21875SOL    HW270473   6.215   8.443   5.838
21876SOL     OW70474   7.167   7.562   7.014
21876SOL    HW170475   7.252   7.591   6.981
21876SOL    HW270476   7.158   7.605   7.099
21877SOL     OW70477   5.720   8.091   6.169
21877SOL    HW170478   5.670   8.015   6.200
21877SOL    HW270479   5.712   8.155   6.240
21878SOL     OW70480   7.448   9.199   5.922
21878SOL    HW170481   7.532   9.182   5.964
21878SOL    HW270482   7.457   9.286   5.883
21879SOL     OW70483   5.605   9.010   5.727
21879SOL    HW170484   5.523   8.967   5.702
21879SOL    HW270485   5.580   9.074   5.793
21880SOL     OW70486   7.255   8.296   6.163
21880SOL    HW170487   7.342   8.296   6.202
21880SOL    HW270488   7.253   8.376   6.110
21881SOL     OW70489   7.244   8.565   6.034
21881SOL    HW170490   7.331   8.565   5.993
21881SOL    HW270491   7.254   8.622   6.110
21882SOL     OW70492   6.190   8.851   6.295
21882SOL    HW170493   6.156   8.765   6.320
21882SOL    HW270494   6.167   8.859   6.203
21883SOL     OW70495   6.954   8.616   6.947
21883SOL    HW170496   7.037   8.647   6.913
21883SOL    HW270497   6.966   8.613   7.042
21884SOL     OW70498   6.383   7.519   6.035
21884SOL    HW170499   6.451   7.586   6.027
21884SOL    HW270500   6.329   7.549   6.109
21885SOL     OW70501   7.113   8.522   5.779
21885SOL    HW170502   7.057   8.450   5.809
21885SOL    HW270503   7.167   8.544   5.855
21886SOL     OW70504   6.758   9.275   7.226
21886SOL    HW170505   6.683   9.335   7.232
21886SOL    HW270506   6.831   9.325   7.262
21887SOL     OW70507   5.964   7.721   7.447
21887SOL    HW170508   6.011   7.789   7.495
21887SOL    HW270509   5.880   7.761   7.425
21888SOL     OW70510   7.280   9.177   6.154
21888SOL    HW170511   7.224   9.174   6.077
21888SOL    HW270512   7.368   9.159   6.121
21889SOL     OW70513   6.169   8.132   5.852
21889SOL    HW170514   6.181   8.221   5.820
21889SOL    HW270515   6.099   8.139   5.917
21890SOL     OW70516   7.171   9.126   5.900
21890SOL    HW170517   7.263   9.148   5.887
21890SOL    HW270518   7.134   9.123   5.811
21891SOL     OW70519   6.346   8.040   7.084
21891SOL    HW170520   6.346   8.042   7.179
21891SOL    HW270521   6.320   8.129   7.058
21892SOL     OW70522   7.001   7.938   7.252
21892SOL    HW170523   6.983   7.961   7.343
21892SOL    HW270524   7.072   7.996   7.226
21893SOL     OW70525   6.540   8.360   7.170
21893SOL    HW170526   6.587   8.284   7.135
21893SOL    HW270527   6.521   8.413   7.092
21894SOL     OW70528   6.521   7.904   6.877
21894SOL    HW170529   6.494   7.989   6.913
21894SOL    HW270530   6.442   7.868   6.838
21895SOL     OW70531   6.634   8.119   6.023
21895SOL    HW170532   6.654   8.124   6.117
21895SOL    HW270533   6.547   8.080   6.019
21896SOL     OW70534   5.671   8.263   6.374
21896SOL    HW170535   5.721   8.257   6.455
21896SOL    HW270536   5.614   8.340   6.387
21897SOL     OW70537   6.530   7.764   5.748
21897SOL    HW170538   6.565   7.844   5.709
21897SOL    HW270539   6.549   7.696   5.682
21898SOL     OW70540   7.248   8.008   7.434
21898SOL    HW170541   7.229   8.075   7.368
21898SOL    HW270542   7.293   7.939   7.386
21899SOL     OW70543   6.963   8.582   6.103
21899SOL    HW170544   7.052   8.585   6.068
21899SOL    HW270545   6.918   8.654   6.060
21900SOL     OW70546   6.138   7.612   6.479
21900SOL    HW170547   6.131   7.624   6.574
21900SOL    HW270548   6.147   7.701   6.445
21901SOL     OW70549   6.570   8.897   6.054
21901SOL    HW170550   6.552   8.968   5.992
21901SOL    HW270551   6.542   8.932   6.138
21902SOL     OW70552   5.942   9.275   6.472
21902SOL    HW170553   5.992   9.194   6.487
21902SOL    HW270554   6.000   9.344   6.502
21903SOL     OW70555   7.331   8.455   6.449
21903SOL    HW170556   7.382   8.522   6.403
21903SOL    HW270557   7.298   8.500   6.527
21904SOL     OW70558   6.813   8.981   7.070
21904SOL    HW170559   6.796   8.914   7.136
21904SOL    HW270560   6.793   9.064   7.113
21905SOL     OW70561   5.904   8.461   5.840
21905SOL    HW170562   5.999   8.456   5.826
21905SOL    HW270563   5.867   8.417   5.763
21906SOL     OW70564   7.097   8.306   6.386
21906SOL    HW170565   7.162   8.358   6.433
21906SOL    HW270566   7.139   8.284   6.303
21907SOL     OW70567   6.103   8.692   7.317
21907SOL    HW170568   6.034   8.713   7.255
21907SOL    HW270569   6.066   8.714   7.402
21908SOL     OW70570   6.737   9.165   5.842
21908SOL    HW170571   6.646   9.150   5.867
21908SOL    HW270572   6.744   9.132   5.753
21909SOL     OW70573   5.785   7.712   7.169
21909SOL    HW170574   5.694   7.726   7.141
21909SOL    HW270575   5.790   7.755   7.254
21910SOL     OW70576   7.162   8.843   5.692
21910SOL    HW170577   7.253   8.825   5.715
21910SOL    HW270578   7.158   8.938   5.682
21911SOL     OW70579   6.082   9.122   5.933
21911SOL    HW170580   6.107   9.205   5.974
21911SOL    HW270581   6.135   9.117   5.854
21912SOL     OW70582   6.970   7.549   6.036
21912SOL    HW170583   6.959   7.521   5.945
21912SOL    HW270584   7.059   7.583   6.039
21913SOL     OW70585   5.828   9.190   6.869
21913SOL    HW170586   5.858   9.188   6.960
21913SOL    HW270587   5.745   9.141   6.870
21914SOL     OW70588   6.561   9.105   6.481
21914SOL    HW170589   6.639   9.053   6.460
21914SOL    HW270590   6.498   9.081   6.412
21915SOL     OW70591   5.976   8.094   6.051
21915SOL    HW170592   5.988   8.000   6.066
21915SOL    HW270593   5.888   8.113   6.082
21916SOL     OW70594   7.112   7.680   7.274
21916SOL    HW170595   7.108   7.671   7.369
21916SOL    HW270596   7.068   7.763   7.256
21917SOL     OW70597   6.248   7.567   5.643
21917SOL    HW170598   6.297   7.628   5.588
21917SOL    HW270599   6.184   7.528   5.583
21918SOL     OW70600   6.360   7.751   7.236
21918SOL    HW170601   6.427   7.690   7.269
21918SOL    HW270602   6.354   7.818   7.304
21919SOL     OW70603   6.522   9.020   6.750
21919SOL    HW170604   6.540   9.060   6.665
21919SOL    HW270605   6.557   9.082   6.814
21920SOL     OW70606   6.892   8.019   7.009
21920SOL    HW170607   6.937   7.985   7.087
21920SOL    HW270608   6.933   8.104   6.993
21921SOL     OW70609   6.377   8.838   6.510
21921SOL    HW170610   6.466   8.839   6.475
21921SOL    HW270611   6.321   8.846   6.432
21922SOL     OW70612   6.530   7.924   6.488
21922SOL    HW170613   6.501   7.908   6.398
21922SOL    HW270614   6.582   7.847   6.510
21923SOL     OW70615   6.088   7.472   6.044
21923SOL    HW170616   6.028   7.456   6.118
21923SOL    HW270617   6.068   7.561   6.017
21924SOL     OW70618   5.925   7.438   5.759
21924SOL    HW170619   5.927   7.529   5.727
21924SOL    HW270620   5.993   7.394   5.709
21925SOL     OW70621   6.567   7.718   6.018
21925SOL    HW170622   6.556   7.739   5.925
21925SOL    HW270623   6.657   7.742   6.038
21926SOL     OW70624   6.643   8.131   7.049
21926SOL    HW170625   6.604   8.059   7.099
21926SOL    HW270626   6.734   8.105   7.036
21927SOL     OW70627   6.838   9.037   6.424
21927SOL    HW170628   6.852   9.095   6.349
21927SOL    HW270629   6.830   9.096   6.499
21928SOL     OW70630   6.067   8.595   6.324
21928SOL    HW170631   5.996   8.578   6.386
21928SOL    HW270632   6.024   8.602   6.239
21929SOL     OW70633   6.856   9.239   6.221
21929SOL    HW170634   6.905   9.308   6.175
21929SOL    HW270635   6.776   9.283   6.250
21930SOL     OW70636   6.648   7.983   5.624
21930SOL    HW170637   6.608   8.068   5.606
21930SOL    HW270638   6.708   8.000   5.697
21931SOL     OW70639   6.109   7.600   6.753
21931SOL    HW170640   6.140   7.526   6.806
21931SOL    HW270641   6.020   7.616   6.784
21932SOL     OW70642   6.449   7.868   6.225
21932SOL    HW170643   6.398   7.939   6.185
21932SOL    HW270644   6.491   7.824   6.152
21933SOL     OW70645   6.656   7.536   6.332
21933SOL    HW170646   6.604   7.580   6.264
21933SOL    HW270647   6.599   7.467   6.365
21934SOL     OW70648   7.059   8.710   6.430
21934SOL    HW170649   6.989   8.671   6.378
21934SOL    HW270650   7.135   8.710   6.371
21935SOL     OW70651   7.055   8.009   6.582
21935SOL    HW170652   7.110   8.023   6.505
21935SOL    HW270653   7.114   8.018   6.657
21936SOL     OW70654   7.462   8.272   5.935
21936SOL    HW170655   7.510   8.226   6.003
21936SOL    HW270656   7.416   8.203   5.888
21937SOL     OW70657   6.081   8.878   5.652
21937SOL    HW170658   5.991   8.865   5.682
21937SOL    HW270659   6.076   8.875   5.556
21938SOL     OW70660   7.281   8.726   6.261
21938SOL    HW170661   7.373   8.703   6.277
21938SOL    HW270662   7.278   8.821   6.267
21939SOL     OW70663   6.969   8.038   5.648
21939SOL    HW170664   6.928   8.009   5.729
21939SOL    HW270665   7.063   8.025   5.663
21940SOL     OW70666   6.117   7.705   5.906
21940SOL    HW170667   6.101   7.764   5.832
21940SOL    HW270668   6.098   7.759   5.983
21941SOL     OW70669   7.304   8.682   7.240
21941SOL    HW170670   7.381   8.668   7.184
21941SOL    HW270671   7.327   8.757   7.294
21942SOL     OW70672   6.747   8.785   6.877
21942SOL    HW170673   6.754   8.860   6.937
21942SOL    HW270674   6.810   8.722   6.910
21943SOL     OW70675   7.278   9.087   7.216
21943SOL    HW170676   7.227   9.130   7.147
21943SOL    HW270677   7.219   9.086   7.292
21944SOL     OW70678   6.564   8.690   6.693
21944SOL    HW170679   6.627   8.720   6.759
21944SOL    HW270680   6.597   8.727   6.611
21945SOL     OW70681   7.169   8.557   6.652
21945SOL    HW170682   7.178   8.617   6.726
21945SOL    HW270683   7.120   8.608   6.587
21946SOL     OW70684   6.465   7.527   6.944
21946SOL    HW170685   6.496   7.512   6.854
21946SOL    HW270686   6.528   7.588   6.982
21947SOL     OW70687   6.607   8.555   7.358
21947SOL    HW170688   6.516   8.576   7.381
21947SOL    HW270689   6.599   8.490   7.288
21948SOL     OW70690   6.299   8.492   5.995
21948SOL    HW170691   6.283   8.466   6.086
21948SOL    HW270692   6.377   8.442   5.969
21949SOL     OW70693   6.004   8.239   6.871
21949SOL    HW170694   6.035   8.290   6.946
21949SOL    HW270695   5.908   8.242   6.878
21950SOL     OW70696   6.781   7.890   6.796
21950SOL    HW170697   6.827   7.936   6.866
21950SOL    HW270698   6.689   7.900   6.817
21951SOL     OW70699   5.607   9.037   6.936
21951SOL    HW170700   5.519   9.074   6.931
21951SOL    HW270701   5.630   9.041   7.029
21952SOL     OW70702   5.951   8.635   6.073
21952SOL    HW170703   6.004   8.711   6.049
21952SOL    HW270704   5.942   8.585   5.992
21953SOL     OW70705   6.160   7.911   6.400
21953SOL    HW170706   6.171   7.987   6.343
21953SOL    HW270707   6.211   7.931   6.478
21954SOL     OW70708   6.830   8.800   5.983
21954SOL    HW170709   6.881   8.877   6.009
21954SOL    HW270710   6.740   8.822   6.008
21955SOL     OW70711   6.939   8.896   6.695
21955SOL    HW170712   6.986   8.922   6.775
21955SOL    HW270713   6.858   8.856   6.728
21956SOL     OW70714   7.203   8.045   6.057
21956SOL    HW170715   7.211   8.135   6.089
21956SOL    HW270716   7.268   8.038   5.987
21957SOL     OW70717   5.945   8.911   6.906
21957SOL    HW170718   5.938   8.894   6.812
21957SOL    HW270719   5.938   9.006   6.914
21958SOL     OW70720   5.951   8.087   7.192
21958SOL    HW170721   6.001   8.160   7.157
21958SOL    HW270722   5.895   8.126   7.259
21959SOL     OW70723   7.166   8.159   7.219
21959SOL    HW170724   7.099   8.223   7.239
21959SOL    HW270725   7.233   8.208   7.171
21960SOL     OW70726   6.578   7.599   7.315
21960SOL    HW170727   6.637   7.675   7.312
21960SOL    HW270728   6.631   7.527   7.283
21961SOL     OW70729   6.114   7.511   7.346
21961SOL    HW170730   6.063   7.472   7.275
21961SOL    HW270731   6.066   7.590   7.369
21962SOL     OW70732   6.149   8.257   6.642
21962SOL    HW170733   6.147   8.350   6.618
21962SOL    HW270734   6.101   8.253   6.725
21963SOL     OW70735   6.919   8.268   6.604
21963SOL    HW170736   6.966   8.299   6.526
21963SOL    HW270737   6.954   8.180   6.620
21964SOL     OW70738   6.802   7.974   5.862
21964SOL    HW170739   6.827   7.905   5.923
21964SOL    HW270740   6.751   8.036   5.915
21965SOL     OW70741   5.849   7.640   6.831
21965SOL    HW170742   5.869   7.731   6.853
21965SOL    HW270743   5.755   7.632   6.848
21966SOL     OW70744   5.625   8.769   6.877
21966SOL    HW170745   5.665   8.724   6.951
21966SOL    HW270746   5.634   8.862   6.898
21967SOL     OW70747   6.275   8.015   6.628
21967SOL    HW170748   6.366   8.036   6.607
21967SOL    HW270749   6.232   8.100   6.634
21968SOL     OW70750   7.298   8.436   7.373
21968SOL    HW170751   7.291   8.395   7.287
21968SOL    HW270752   7.287   8.530   7.355
21969SOL     OW70753   5.876   7.467   6.221
21969SOL    HW170754   5.849   7.558   6.231
21969SOL    HW270755   5.887   7.435   6.311
21970SOL     OW70756   7.131   7.790   5.968
21970SOL    HW170757   7.208   7.749   6.006
21970SOL    HW270758   7.138   7.882   5.992
21971SOL     OW70759   6.564   8.192   6.534
21971SOL    HW170760   6.565   8.204   6.629
21971SOL    HW270761   6.555   8.097   6.522
21972SOL     OW70762   6.527   9.006   7.309
21972SOL    HW170763   6.480   9.079   7.267
21972SOL    HW270764   6.615   9.041   7.325
21973SOL     OW70765   7.057   7.705   5.710
21973SOL    HW170766   7.011   7.628   5.741
21973SOL    HW270767   7.090   7.747   5.790
21974SOL     OW70768   6.849   8.281   5.595
21974SOL    HW170769   6.892   8.196   5.604
21974SOL    HW270770   6.886   8.319   5.515
21975SOL     OW70771   6.656   8.814   6.455
21975SOL    HW170772   6.674   8.735   6.404
21975SOL    HW270773   6.730   8.871   6.438
21976SOL     OW70774   5.811   8.270   6.611
21976SOL    HW170775   5.897   8.231   6.626
21976SOL    HW270776   5.755   8.232   6.679
21977SOL     OW70777   5.938   7.942   6.569
21977SOL    HW170778   5.912   7.850   6.557
21977SOL    HW270779   6.013   7.953   6.510
21978SOL     OW70780   6.737   7.824   7.263
21978SOL    HW170781   6.698   7.871   7.336
21978SOL    HW270782   6.827   7.857   7.258
21979SOL     OW70783   6.696   7.676   7.027
21979SOL    HW170784   6.704   7.733   7.104
21979SOL    HW270785   6.724   7.730   6.954
21980SOL     OW70786   5.528   8.725   5.847
21980SOL    HW170787   5.458   8.775   5.805
21980SOL    HW270788   5.578   8.688   5.775
21981SOL     OW70789   5.671   9.225   6.496
21981SOL    HW170790   5.670   9.152   6.434
21981SOL    HW270791   5.763   9.251   6.501
21982SOL     OW70792   6.090   9.037   6.483
21982SOL    HW170793   6.164   9.092   6.508
21982SOL    HW270794   6.125   8.978   6.416
21983SOL     OW70795   6.524   8.219   6.810
21983SOL    HW170796   6.581   8.194   6.883
21983SOL    HW270797   6.496   8.308   6.830
21984SOL     OW70798   5.661   7.938   6.533
21984SOL    HW170799   5.753   7.965   6.533
21984SOL    HW270800   5.624   7.980   6.610
21985SOL     OW70801   6.968   8.350   7.234
21985SOL    HW170802   6.992   8.443   7.235
21985SOL    HW270803   6.956   8.330   7.141
21986SOL     OW70804   6.389   7.995   5.964
21986SOL    HW170805   6.403   7.937   5.889
21986SOL    HW270806   6.319   8.054   5.936
21987SOL     OW70807   7.238   8.033   6.781
21987SOL    HW170808   7.251   7.987   6.864
21987SOL    HW270809   7.325   8.036   6.741
21988SOL     OW70810   6.257   7.824   6.824
21988SOL    HW170811   6.207   7.752   6.786
21988SOL    HW270812   6.250   7.894   6.760
21989SOL     OW70813   6.581   9.226   6.946
21989SOL    HW170814   6.502   9.240   6.998
21989SOL    HW270815   6.652   9.260   7.000
21990SOL     OW70816   6.042   7.909   5.732
21990SOL    HW170817   6.100   7.980   5.757
21990SOL    HW270818   5.957   7.950   5.719
21991SOL     OW70819   5.708   8.610   7.101
21991SOL    HW170820   5.774   8.673   7.131
21991SOL    HW270821   5.755   8.527   7.096
21992SOL     OW70822   6.789   8.420   6.807
21992SOL    HW170823   6.826   8.383   6.727
21992SOL    HW270824   6.844   8.497   6.825
21993SOL     OW70825   6.933   8.333   5.856
21993SOL    HW170826   6.864   8.328   5.922
21993SOL    HW270827   6.889   8.313   5.773
21994SOL     OW70828   7.318   9.148   6.712
21994SOL    HW170829   7.395   9.179   6.662
21994SOL    HW270830   7.310   9.056   6.688
21995SOL     OW70831   6.828   9.198   6.655
21995SOL    HW170832   6.917   9.220   6.627
21995SOL    HW270833   6.838   9.170   6.746
21996SOL     OW70834   5.674   8.733   6.606
21996SOL    HW170835   5.667   8.735   6.701
21996SOL    HW270836   5.601   8.788   6.575
21997SOL     OW70837   6.227   9.093   7.324
21997SOL    HW170838   6.136   9.123   7.318
21997SOL    HW270839   6.279   9.172   7.310
21998SOL     OW70840   7.335   7.645   6.082
21998SOL    HW170841   7.391   7.620   6.009
21998SOL    HW270842   7.312   7.562   6.124
21999SOL     OW70843   6.970   9.024   6.070
21999SOL    HW170844   7.029   9.061   6.004
21999SOL    HW270845   6.920   9.099   6.102
22000SOL     OW70846   6.867   8.370   6.242
22000SOL    HW170847   6.944   8.349   6.294
22000SOL    HW270848   6.896   8.439   6.182
22001SOL     OW70849   6.425   8.757   6.968
22001SOL    HW170850   6.510   8.789   7.000
22001SOL    HW270851   6.361   8.791   7.030
22002SOL     OW70852   6.266   9.066   5.727
22002SOL    HW170853   6.277   9.101   5.638
22002SOL    HW270854   6.212   8.987   5.714
22003SOL     OW70855   7.195   9.202   6.974
22003SOL    HW170856   7.243   9.216   6.893
22003SOL    HW270857   7.176   9.290   7.006
22004SOL     OW70858   7.406   7.597   6.578
22004SOL    HW170859   7.441   7.516   6.542
22004SOL    HW270860   7.335   7.622   6.519
22005SOL     OW70861   5.812   7.728   6.278
22005SOL    HW170862   5.732   7.779   6.267
22005SOL    HW270863   5.822   7.718   6.372
22006SOL     OW70864   6.778   9.097   5.577
22006SOL    HW170865   6.695   9.055   5.554
22006SOL    HW270866   6.787   9.168   5.513
22007SOL     OW70867   6.481   8.482   6.920
22007SOL    HW170868   6.560   8.497   6.869
22007SOL    HW270869   6.443   8.569   6.933
22008SOL     OW70870   6.507   8.343   5.910
22008SOL    HW170871   6.547   8.373   5.829
22008SOL    HW270872   6.565   8.274   5.942
22009SOL     OW70873   7.057   9.109   5.640
22009SOL    HW170874   6.967   9.090   5.616
22009SOL    HW270875   7.104   9.111   5.556
22010SOL     OW70876   5.907   8.789   7.151
22010SOL    HW170877   5.925   8.839   7.072
22010SOL    HW270878   5.863   8.850   7.210
22011SOL     OW70879   7.192   8.742   6.857
22011SOL    HW170880   7.284   8.748   6.882
22011SOL    HW270881   7.151   8.820   6.897
22012SOL     OW70882   6.693   8.571   6.339
22012SOL    HW170883   6.612   8.524   6.360
22012SOL    HW270884   6.749   8.504   6.298
22013SOL     OW70885   6.701   7.704   6.548
22013SOL    HW170886   6.701   7.650   6.469
22013SOL    HW270887   6.668   7.645   6.616
22014SOL     OW70888   6.120   8.858   6.023
22014SOL    HW170889   6.197   8.831   5.973
22014SOL    HW270890   6.102   8.947   5.992
22015SOL     OW70891   7.336   7.859   6.996
22015SOL    HW170892   7.412   7.917   6.989
22015SOL    HW270893   7.361   7.781   6.945
22016SOL     OW70894   5.827   8.852   5.789
22016SOL    HW170895   5.754   8.909   5.766
22016SOL    HW270896   5.861   8.889   5.871
22017SOL     OW70897   5.677   7.785   5.640
22017SOL    HW170898   5.613   7.796   5.570
22017SOL    HW270899   5.713   7.872   5.655
22018SOL     OW70900   6.966   8.277   6.968
22018SOL    HW170901   6.900   8.326   6.918
22018SOL    HW270902   7.049   8.301   6.926
22019SOL     OW70903   5.625   7.640   5.877
22019SOL    HW170904   5.624   7.680   5.790
22019SOL    HW270905   5.692   7.688   5.925
22020SOL     OW70906   6.811   8.734   5.711
22020SOL    HW170907   6.717   8.749   5.699
22020SOL    HW270908   6.827   8.756   5.803
22021SOL     OW70909   6.259   8.302   7.054
22021SOL    HW170910   6.297   8.354   6.984
22021SOL    HW270911   6.282   8.349   7.134
22022SOL     OW70912   7.091   9.183   6.558
22022SOL    HW170913   7.101   9.263   6.507
22022SOL    HW270914   7.165   9.182   6.618
22023SOL     OW70915   6.311   8.008   7.356
22023SOL    HW170916   6.229   8.026   7.402
22023SOL    HW270917   6.374   8.070   7.392
22024SOL     OW70918   7.038   8.617   7.214
22024SOL    HW170919   7.001   8.663   7.289
22024SOL    HW270920   7.130   8.640   7.215
22025SOL     OW70921   5.906   9.143   7.124
22025SOL    HW170922   5.828   9.099   7.159
22025SOL    HW270923   5.937   9.196   7.197
22026SOL     OW70924   7.202   8.336   6.838
22026SOL    HW170925   7.240   8.258   6.798
22026SOL    HW270926   7.203   8.402   6.768
22027SOL     OW70927   6.824   7.787   6.081
22027SOL    HW170928   6.886   7.716   6.065
22027SOL    HW270929   6.848   7.821   6.167
22028SOL     OW70930   6.184   8.131   6.239
22028SOL    HW170931   6.218   8.219   6.253
22028SOL    HW270932   6.116   8.142   6.172
22029SOL     OW70933   7.357   7.809   7.276
22029SOL    HW170934   7.368   7.834   7.184
22029SOL    HW270935   7.285   7.746   7.276
22030SOL     OW70936   7.305   8.368   7.097
22030SOL    HW170937   7.375   8.433   7.091
22030SOL    HW270938   7.271   8.361   7.008
22031SOL     OW70939   6.545   8.805   5.695
22031SOL    HW170940   6.470   8.797   5.754
22031SOL    HW270941   6.523   8.878   5.638
22032SOL     OW70942   6.286   9.226   6.522
22032SOL    HW170943   6.242   9.311   6.523
22032SOL    HW270944   6.374   9.244   6.555
22033SOL     OW70945   6.472   8.441   6.452
22033SOL    HW170946   6.502   8.355   6.481
22033SOL    HW270947   6.476   8.496   6.530
22034SOL     OW70948   6.618   8.409   5.668
22034SOL    HW170949   6.599   8.481   5.608
22034SOL    HW270950   6.702   8.375   5.639
22035SOL     OW70951   7.477   8.932   6.407
22035SOL    HW170952   7.536   8.931   6.332
22035SOL    HW270953   7.504   8.859   6.461
22036SOL     OW70954   5.774   8.662   7.424
22036SOL    HW170955   5.759   8.749   7.387
22036SOL    HW270956   5.855   8.672   7.475
22037SOL     OW70957   5.733   8.619   6.244
22037SOL    HW170958   5.764   8.586   6.328
22037SOL    HW270959   5.810   8.619   6.188
22038SOL     OW70960   6.267   8.859   7.164
22038SOL    HW170961   6.210   8.802   7.217
22038SOL    HW270962   6.266   8.943   7.211
22039SOL     OW70963   7.405   7.631   6.858
22039SOL    HW170964   7.496   7.608   6.879
22039SOL    HW270965   7.399   7.618   6.763
22040SOL     OW70966   6.034   7.828   6.141
22040SOL    HW170967   6.091   7.858   6.212
22040SOL    HW270968   5.955   7.797   6.186
22041SOL     OW70969   7.252   8.888   6.622
22041SOL    HW170970   7.238   8.835   6.700
22041SOL    HW270971   7.334   8.855   6.585
22042SOL     OW70972   5.916   7.907   6.845
22042SOL    HW170973   5.914   7.987   6.897
22042SOL    HW270974   5.913   7.936   6.754
22043SOL     OW70975   6.423   9.059   6.245
22043SOL    HW170976   6.417   9.142   6.198
22043SOL    HW270977   6.333   9.028   6.250
22044SOL     OW70978   7.021   7.700   6.682
22044SOL    HW170979   7.026   7.606   6.666
22044SOL    HW270980   7.060   7.713   6.769
22045SOL     OW70981   6.598   7.471   6.692
22045SOL    HW170982   6.562   7.424   6.617
22045SOL    HW270983   6.684   7.431   6.707
22046SOL     OW70984   6.362   8.761   5.921
22046SOL    HW170985   6.349   8.669   5.944
22046SOL    HW270986   6.438   8.788   5.971
22047SOL     OW70987   6.254   9.011   6.826
22047SOL    HW170988   6.198   9.065   6.881
22047SOL    HW270989   6.331   9.065   6.810
22048SOL     OW70990   6.934   7.456   5.775
22048SOL    HW170991   7.001   7.389   5.788
22048SOL    HW270992   6.904   7.442   5.686
22049SOL     OW70993   6.878   7.919   6.353
22049SOL    HW170994   6.823   7.994   6.328
22049SOL    HW270995   6.967   7.947   6.331
22050SOL     OW70996   7.173   7.675   6.445
22050SOL    HW170997   7.134   7.714   6.523
22050SOL    HW270998   7.177   7.747   6.381
22051SOL     OW70999   5.663   8.493   5.976
22051SOL    HW171000   5.747   8.480   5.931
22051SOL    HW271001   5.625   8.405   5.979
22052SOL     OW71002   6.473   9.114   5.910
22052SOL    HW171003   6.402   9.100   5.848
22052SOL    HW271004   6.444   9.188   5.963
22053SOL     OW71005   5.782   7.735   8.471
22053SOL    HW171006   5.855   7.761   8.526
22053SOL    HW271007   5.718   7.806   8.480
22054SOL     OW71008   5.566   7.763   8.161
22054SOL    HW171009   5.497   7.824   8.186
22054SOL    HW271010   5.524   7.704   8.098
22055SOL     OW71011   6.122   8.769   8.547
22055SOL    HW171012   6.033   8.803   8.554
22055SOL    HW271013   6.173   8.823   8.609
22056SOL     OW71014   7.139   8.956   8.174
22056SOL    HW171015   7.092   8.940   8.256
22056SOL    HW271016   7.070   8.973   8.109
22057SOL     OW71017   6.658   8.150   8.142
22057SOL    HW171018   6.713   8.220   8.106
22057SOL    HW271019   6.644   8.174   8.234
22058SOL     OW71020   7.363   8.037   7.677
22058SOL    HW171021   7.329   8.041   7.588
22058SOL    HW271022   7.326   7.957   7.714
22059SOL     OW71023   6.299   8.575   8.474
22059SOL    HW171024   6.235   8.630   8.519
22059SOL    HW271025   6.333   8.630   8.404
22060SOL     OW71026   6.281   8.226   9.236
22060SOL    HW171027   6.300   8.138   9.268
22060SOL    HW271028   6.355   8.248   9.179
22061SOL     OW71029   6.312   8.406   8.110
22061SOL    HW171030   6.378   8.399   8.179
22061SOL    HW271031   6.285   8.498   8.111
22062SOL     OW71032   6.336   8.611   9.241
22062SOL    HW171033   6.346   8.699   9.205
22062SOL    HW271034   6.241   8.601   9.252
22063SOL     OW71035   5.883   8.903   8.541
22063SOL    HW171036   5.804   8.872   8.496
22063SOL    HW271037   5.872   8.998   8.546
22064SOL     OW71038   7.028   8.965   8.823
22064SOL    HW171039   7.081   9.045   8.828
22064SOL    HW271040   6.965   8.974   8.894
22065SOL     OW71041   6.046   7.803   8.933
22065SOL    HW171042   6.121   7.796   8.992
22065SOL    HW271043   5.970   7.788   8.989
22066SOL     OW71044   7.210   7.913   8.190
22066SOL    HW171045   7.200   7.955   8.105
22066SOL    HW271046   7.180   7.979   8.253
22067SOL     OW71047   5.836   9.162   7.894
22067SOL    HW171048   5.857   9.225   7.963
22067SOL    HW271049   5.919   9.151   7.847
22068SOL     OW71050   6.703   8.752   9.120
22068SOL    HW171051   6.782   8.730   9.170
22068SOL    HW271052   6.658   8.668   9.109
22069SOL     OW71053   5.747   8.919   7.987
22069SOL    HW171054   5.769   9.009   7.961
22069SOL    HW271055   5.754   8.920   8.083
22070SOL     OW71056   5.833   8.559   8.337
22070SOL    HW171057   5.840   8.474   8.380
22070SOL    HW271058   5.770   8.607   8.391
22071SOL     OW71059   6.143   9.154   8.867
22071SOL    HW171060   6.058   9.164   8.910
22071SOL    HW271061   6.191   9.233   8.892
22072SOL     OW71062   6.175   8.397   7.582
22072SOL    HW171063   6.226   8.453   7.525
22072SOL    HW271064   6.209   8.414   7.670
22073SOL     OW71065   7.177   7.610   8.902
22073SOL    HW171066   7.230   7.688   8.888
22073SOL    HW271067   7.150   7.615   8.994
22074SOL     OW71068   5.734   8.139   8.018
22074SOL    HW171069   5.702   8.050   8.036
22074SOL    HW271070   5.719   8.187   8.099
22075SOL     OW71071   7.425   9.181   7.765
22075SOL    HW171072   7.499   9.171   7.826
22075SOL    HW271073   7.429   9.273   7.738
22076SOL     OW71074   7.235   8.353   8.099
22076SOL    HW171075   7.289   8.392   8.167
22076SOL    HW271076   7.273   8.384   8.017
22077SOL     OW71077   7.212   8.571   7.867
22077SOL    HW171078   7.299   8.564   7.827
22077SOL    HW271079   7.227   8.620   7.948
22078SOL     OW71080   5.795   8.186   9.022
22078SOL    HW171081   5.890   8.201   9.026
22078SOL    HW271082   5.757   8.269   9.052
22079SOL     OW71083   6.854   8.649   8.846
22079SOL    HW171084   6.882   8.581   8.784
22079SOL    HW271085   6.913   8.639   8.920
22080SOL     OW71086   6.411   7.579   8.026
22080SOL    HW171087   6.458   7.625   7.957
22080SOL    HW271088   6.372   7.648   8.080
22081SOL     OW71089   5.740   8.383   8.751
22081SOL    HW171090   5.830   8.349   8.750
22081SOL    HW271091   5.686   8.309   8.720
22082SOL     OW71092   7.018   8.539   7.667
22082SOL    HW171093   7.035   8.453   7.629
22082SOL    HW271094   7.087   8.551   7.732
22083SOL     OW71095   6.736   9.280   9.063
22083SOL    HW171096   6.760   9.355   9.008
22083SOL    HW271097   6.807   9.217   9.051
22084SOL     OW71098   7.032   8.856   8.408
22084SOL    HW171099   6.965   8.878   8.473
22084SOL    HW271100   7.019   8.763   8.391
22085SOL     OW71101   7.261   9.197   8.058
22085SOL    HW171102   7.235   9.172   7.969
22085SOL    HW271103   7.200   9.151   8.115
22086SOL     OW71104   6.169   8.135   7.709
22086SOL    HW171105   6.180   8.220   7.668
22086SOL    HW271106   6.120   8.153   7.790
22087SOL     OW71107   6.886   7.826   8.420
22087SOL    HW171108   6.814   7.766   8.402
22087SOL    HW271109   6.885   7.836   8.515
22088SOL     OW71110   7.158   9.120   7.807
22088SOL    HW171111   7.247   9.136   7.775
22088SOL    HW271112   7.101   9.158   7.740
22089SOL     OW71113   6.430   7.959   8.934
22089SOL    HW171114   6.377   7.966   9.013
22089SOL    HW271115   6.366   7.950   8.863
22090SOL     OW71116   6.920   7.835   9.111
22090SOL    HW171117   6.908   7.896   9.184
22090SOL    HW271118   6.995   7.781   9.136
22091SOL     OW71119   6.471   8.283   9.018
22091SOL    HW171120   6.543   8.241   8.970
22091SOL    HW271121   6.510   8.362   9.055
22092SOL     OW71122   6.597   7.909   8.676
22092SOL    HW171123   6.509   7.900   8.714
22092SOL    HW271124   6.581   7.921   8.582
22093SOL     OW71125   6.618   8.113   7.859
22093SOL    HW171126   6.624   8.127   7.954
22093SOL    HW271127   6.533   8.071   7.847
22094SOL     OW71128   5.686   8.250   8.261
22094SOL    HW171129   5.751   8.261   8.330
22094SOL    HW271130   5.617   8.313   8.281
22095SOL     OW71131   5.683   9.361   9.013
22095SOL    HW171132   5.645   9.357   9.101
22095SOL    HW271133   5.607   9.371   8.955
22096SOL     OW71134   6.429   7.761   7.588
22096SOL    HW171135   6.491   7.813   7.536
22096SOL    HW271136   6.480   7.734   7.665
22097SOL     OW71137   7.309   8.023   9.298
22097SOL    HW171138   7.278   8.090   9.238
22097SOL    HW271139   7.341   7.953   9.241
22098SOL     OW71140   6.933   8.568   7.949
22098SOL    HW171141   7.028   8.572   7.934
22098SOL    HW271142   6.910   8.656   7.980
22099SOL     OW71143   6.134   7.664   8.371
22099SOL    HW171144   6.148   7.671   8.465
22099SOL    HW271145   6.142   7.754   8.339
22100SOL     OW71146   6.545   8.900   7.985
22100SOL    HW171147   6.547   8.976   7.927
22100SOL    HW271148   6.470   8.915   8.043
22101SOL     OW71149   7.385   8.465   8.303
22101SOL    HW171150   7.427   8.541   8.263
22101SOL    HW271151   7.349   8.498   8.385
22102SOL     OW71152   6.785   8.986   8.992
22102SOL    HW171153   6.769   8.896   9.021
22102SOL    HW271154   6.700   9.017   8.963
22103SOL     OW71155   5.875   8.421   7.591
22103SOL    HW171156   5.964   8.454   7.603
22103SOL    HW271157   5.885   8.348   7.529
22104SOL     OW71158   7.034   8.182   8.138
22104SOL    HW171159   7.035   8.151   8.228
22104SOL    HW271160   7.104   8.246   8.133
22105SOL     OW71161   6.065   8.690   9.209
22105SOL    HW171162   6.051   8.669   9.117
22105SOL    HW271163   5.976   8.699   9.245
22106SOL     OW71164   6.739   9.081   7.665
22106SOL    HW171165   6.662   9.108   7.715
22106SOL    HW271166   6.804   9.149   7.683
22107SOL     OW71167   5.819   7.755   9.070
22107SOL    HW171168   5.793   7.834   9.117
22107SOL    HW271169   5.815   7.685   9.137
22108SOL     OW71170   7.234   8.838   7.486
22108SOL    HW171171   7.212   8.931   7.479
22108SOL    HW271172   7.150   8.792   7.480
22109SOL     OW71173   6.113   9.154   7.792
22109SOL    HW171174   6.165   9.095   7.845
22109SOL    HW271175   6.134   9.242   7.825
22110SOL     OW71176   6.988   7.544   7.922
22110SOL    HW171177   6.985   7.521   7.829
22110SOL    HW271178   7.080   7.531   7.947
22111SOL     OW71179   5.829   9.173   8.594
22111SOL    HW171180   5.863   9.254   8.631
22111SOL    HW271181   5.791   9.198   8.511
22112SOL     OW71182   6.466   9.107   8.320
22112SOL    HW171183   6.552   9.079   8.289
22112SOL    HW271184   6.404   9.064   8.262
22113SOL     OW71185   6.006   8.126   7.937
22113SOL    HW171186   6.000   8.032   7.953
22113SOL    HW271187   5.918   8.159   7.956
22114SOL     OW71188   7.121   7.634   9.171
22114SOL    HW171189   7.122   7.671   9.259
22114SOL    HW271190   7.110   7.540   9.185
22115SOL     OW71191   6.233   7.561   7.595
22115SOL    HW171192   6.306   7.621   7.585
22115SOL    HW271193   6.204   7.545   7.505
22116SOL     OW71194   6.291   7.694   9.121
22116SOL    HW171195   6.372   7.656   9.154
22116SOL    HW271196   6.291   7.783   9.155
22117SOL     OW71197   6.472   8.994   8.582
22117SOL    HW171198   6.478   9.029   8.494
22117SOL    HW271199   6.555   8.950   8.596
22118SOL     OW71200   6.934   8.053   8.859
22118SOL    HW171201   6.962   8.045   8.951
22118SOL    HW271202   6.978   8.131   8.827
22119SOL     OW71203   6.372   8.745   8.279
22119SOL    HW171204   6.465   8.757   8.296
22119SOL    HW271205   6.345   8.826   8.235
22120SOL     OW71206   6.569   7.919   8.397
22120SOL    HW171207   6.512   7.932   8.321
22120SOL    HW271208   6.601   7.829   8.389
22121SOL     OW71209   6.114   7.470   7.933
22121SOL    HW171210   6.049   7.472   8.003
22121SOL    HW271211   6.106   7.555   7.890
22122SOL     OW71212   6.980   8.722   7.469
22122SOL    HW171213   6.995   8.655   7.536
22122SOL    HW271214   6.900   8.766   7.498
22123SOL     OW71215   5.858   7.560   7.640
22123SOL    HW171216   5.886   7.607   7.562
22123SOL    HW271217   5.918   7.589   7.709
22124SOL     OW71218   6.538   7.739   7.846
22124SOL    HW171219   6.505   7.829   7.853
22124SOL    HW271220   6.632   7.747   7.864
22125SOL     OW71221   6.661   8.135   8.853
22125SOL    HW171222   6.631   8.052   8.815
22125SOL    HW271223   6.756   8.127   8.858
22126SOL     OW71224   6.722   9.044   8.234
22126SOL    HW171225   6.747   9.094   8.156
22126SOL    HW271226   6.764   9.089   8.306
22127SOL     OW71227   6.784   9.220   8.006
22127SOL    HW171228   6.803   9.261   7.921
22127SOL    HW271229   6.729   9.283   8.051
22128SOL     OW71230   6.618   7.947   7.482
22128SOL    HW171231   6.584   8.036   7.470
22128SOL    HW271232   6.680   7.954   7.554
22129SOL     OW71233   5.680   8.038   8.803
22129SOL    HW171234   5.774   8.020   8.795
22129SOL    HW271235   5.672   8.092   8.882
22130SOL     OW71236   6.157   7.669   8.642
22130SOL    HW171237   6.206   7.639   8.718
22130SOL    HW271238   6.067   7.674   8.671
22131SOL     OW71239   6.447   7.967   8.149
22131SOL    HW171240   6.368   8.017   8.129
22131SOL    HW271241   6.519   8.029   8.135
22132SOL     OW71242   6.623   7.472   8.178
22132SOL    HW171243   6.555   7.514   8.125
22132SOL    HW271244   6.576   7.407   8.231
22133SOL     OW71245   7.053   8.589   8.327
22133SOL    HW171246   7.001   8.510   8.311
22133SOL    HW271247   7.101   8.603   8.246
22134SOL     OW71248   7.042   8.058   8.387
22134SOL    HW171249   6.985   7.982   8.397
22134SOL    HW271250   7.105   8.051   8.459
22135SOL     OW71251   7.397   8.253   7.841
22135SOL    HW171252   7.467   8.222   7.898
22135SOL    HW271253   7.391   8.186   7.773
22136SOL     OW71254   6.002   8.763   7.563
22136SOL    HW171255   5.957   8.764   7.648
22136SOL    HW271256   6.058   8.840   7.565
22137SOL     OW71257   7.227   8.696   8.115
22137SOL    HW171258   7.322   8.692   8.130
22137SOL    HW271259   7.205   8.788   8.132
22138SOL     OW71260   6.966   8.020   7.508
22138SOL    HW171261   6.918   7.991   7.586
22138SOL    HW271262   7.058   8.009   7.531
22139SOL     OW71263   6.067   7.693   7.771
22139SOL    HW171264   6.132   7.655   7.712
22139SOL    HW271265   6.049   7.780   7.735
22140SOL     OW71266   7.303   8.685   8.978
22140SOL    HW171267   7.392   8.650   8.973
22140SOL    HW271268   7.314   8.772   9.017
22141SOL     OW71269   6.644   8.790   8.746
22141SOL    HW171270   6.564   8.785   8.798
22141SOL    HW271271   6.710   8.745   8.798
22142SOL     OW71272   7.200   9.101   9.091
22142SOL    HW171273   7.198   9.141   9.004
22142SOL    HW271274   7.274   9.040   9.088
22143SOL     OW71275   6.661   8.610   8.536
22143SOL    HW171276   6.650   8.670   8.610
22143SOL    HW271277   6.661   8.667   8.459
22144SOL     OW71278   7.240   8.560   8.529
22144SOL    HW171279   7.229   8.628   8.596
22144SOL    HW271280   7.167   8.573   8.469
22145SOL     OW71281   6.566   7.570   8.816
22145SOL    HW171282   6.592   7.587   8.726
22145SOL    HW271283   6.638   7.603   8.869
22146SOL     OW71284   6.571   8.503   9.156
22146SOL    HW171285   6.489   8.537   9.192
22146SOL    HW271286   6.622   8.478   9.233
22147SOL     OW71287   6.287   8.390   7.830
22147SOL    HW171288   6.302   8.396   7.924
22147SOL    HW271289   6.374   8.375   7.793
22148SOL     OW71290   6.000   8.273   8.720
22148SOL    HW171291   6.074   8.298   8.776
22148SOL    HW271292   5.983   8.181   8.742
22149SOL     OW71293   6.862   7.838   8.700
22149SOL    HW171294   6.901   7.911   8.748
22149SOL    HW271295   6.769   7.861   8.693
22150SOL     OW71296   5.657   9.047   8.780
22150SOL    HW171297   5.589   9.090   8.730
22150SOL    HW271298   5.739   9.084   8.748
22151SOL     OW71299   5.946   8.633   8.008
22151SOL    HW171300   5.922   8.680   7.928
22151SOL    HW271301   5.969   8.545   7.978
22152SOL     OW71302   6.176   7.946   8.321
22152SOL    HW171303   6.180   7.997   8.240
22152SOL    HW271304   6.235   7.991   8.381
22153SOL     OW71305   6.801   8.809   7.925
22153SOL    HW171306   6.861   8.883   7.936
22153SOL    HW271307   6.718   8.841   7.960
22154SOL     OW71308   6.855   8.920   8.614
22154SOL    HW171309   6.919   8.936   8.683
22154SOL    HW271310   6.783   8.875   8.657
22155SOL     OW71311   7.186   8.050   7.947
22155SOL    HW171312   7.118   8.100   7.993
22155SOL    HW271313   7.247   8.117   7.916
22156SOL     OW71314   5.963   8.893   8.809
22156SOL    HW171315   5.927   8.900   8.720
22156SOL    HW271316   6.039   8.951   8.808
22157SOL     OW71317   6.064   8.240   9.068
22157SOL    HW171318   6.112   8.278   8.995
22157SOL    HW271319   6.131   8.219   9.133
22158SOL     OW71320   7.215   8.208   9.114
22158SOL    HW171321   7.122   8.228   9.112
22158SOL    HW271322   7.253   8.265   9.047
22159SOL     OW71323   6.568   7.641   9.199
22159SOL    HW171324   6.569   7.637   9.294
22159SOL    HW271325   6.616   7.564   9.170
22160SOL     OW71326   6.070   7.512   9.116
22160SOL    HW171327   6.014   7.539   9.188
22160SOL    HW271328   6.142   7.575   9.116
22161SOL     OW71329   6.160   8.335   8.487
22161SOL    HW171330   6.209   8.417   8.479
22161SOL    HW271331   6.120   8.339   8.573
22162SOL     OW71332   6.905   8.307   8.404
22162SOL    HW171333   6.814   8.275   8.407
22162SOL    HW271334   6.958   8.228   8.410
22163SOL     OW71335   6.784   7.954   7.707
22163SOL    HW171336   6.804   7.885   7.771
22163SOL    HW271337   6.741   8.022   7.759
22164SOL     OW71338   5.899   7.682   8.731
22164SOL    HW171339   5.939   7.721   8.809
22164SOL    HW271340   5.808   7.665   8.756
22165SOL     OW71341   5.657   8.771   8.736
22165SOL    HW171342   5.689   8.722   8.812
22165SOL    HW271343   5.666   8.863   8.763
22166SOL     OW71344   6.310   8.108   8.507
22166SOL    HW171345   6.382   8.148   8.557
22166SOL    HW271346   6.251   8.181   8.488
22167SOL     OW71347   7.272   8.400   9.327
22167SOL    HW171348   7.245   8.346   9.253
22167SOL    HW271349   7.206   8.469   9.332
22168SOL     OW71350   5.899   7.481   8.107
22168SOL    HW171351   5.873   7.573   8.118
22168SOL    HW271352   5.898   7.445   8.195
22169SOL     OW71353   7.193   7.830   7.776
22169SOL    HW171354   7.238   7.764   7.828
22169SOL    HW271355   7.176   7.901   7.837
22170SOL     OW71356   6.641   8.189   8.423
22170SOL    HW171357   6.607   8.219   8.507
22170SOL    HW271358   6.621   8.095   8.421
22171SOL     OW71359   6.553   8.951   9.247
22171SOL    HW171360   6.519   9.006   9.177
22171SOL    HW271361   6.592   8.876   9.202
22172SOL     OW71362   7.414   8.927   9.053
22172SOL    HW171363   7.446   8.966   8.971
22172SOL    HW271364   7.488   8.934   9.113
22173SOL     OW71365   5.950   8.363   9.291
22173SOL    HW171366   6.028   8.392   9.337
22173SOL    HW271367   5.982   8.318   9.213
22174SOL     OW71368   7.091   7.690   7.552
22174SOL    HW171369   7.046   7.626   7.607
22174SOL    HW271370   7.134   7.749   7.613
22175SOL     OW71371   6.875   8.285   7.485
22175SOL    HW171372   6.905   8.194   7.493
22175SOL    HW271373   6.904   8.311   7.397
22176SOL     OW71374   6.644   8.786   8.316
22176SOL    HW171375   6.671   8.722   8.250
22176SOL    HW271376   6.679   8.869   8.284
22177SOL     OW71377   5.887   8.297   8.449
22177SOL    HW171378   5.978   8.302   8.422
22177SOL    HW271379   5.890   8.291   8.544
22178SOL     OW71380   5.966   7.950   8.501
22178SOL    HW171381   5.895   8.004   8.466
22178SOL    HW271382   6.034   7.953   8.433
22179SOL     OW71383   6.803   7.676   8.923
22179SOL    HW171384   6.844   7.727   8.993
22179SOL    HW271385   6.831   7.719   8.842
22180SOL     OW71386   5.593   8.789   7.641
22180SOL    HW171387   5.509   8.810   7.602
22180SOL    HW271388   5.587   8.695   7.660
22181SOL     OW71389   5.699   9.214   8.349
22181SOL    HW171390   5.633   9.157   8.311
22181SOL    HW271391   5.780   9.191   8.304
22182SOL     OW71392   6.506   8.256   8.653
22182SOL    HW171393   6.556   8.223   8.728
22182SOL    HW271394   6.472   8.340   8.682
22183SOL     OW71395   5.630   7.955   8.536
22183SOL    HW171396   5.537   7.976   8.522
22183SOL    HW271397   5.649   7.988   8.624
22184SOL     OW71398   5.777   7.988   9.215
22184SOL    HW171399   5.847   7.994   9.279
22184SOL    HW271400   5.797   8.057   9.151
22185SOL     OW71401   6.967   8.313   9.087
22185SOL    HW171402   6.921   8.284   9.166
22185SOL    HW271403   6.964   8.408   9.091
22186SOL     OW71404   6.391   7.976   7.777
22186SOL    HW171405   6.381   7.918   7.702
22186SOL    HW271406   6.319   8.039   7.768
22187SOL     OW71407   7.207   7.993   8.592
22187SOL    HW171408   7.197   8.026   8.682
22187SOL    HW271409   7.301   7.979   8.582
22188SOL     OW71410   5.787   8.994   9.181
22188SOL    HW171411   5.745   9.026   9.261
22188SOL    HW271412   5.824   8.909   9.205
22189SOL     OW71413   6.312   7.901   8.692
22189SOL    HW171414   6.251   7.831   8.669
22189SOL    HW271415   6.294   7.970   8.627
22190SOL     OW71416   6.514   9.128   9.008
22190SOL    HW171417   6.482   9.165   8.925
22190SOL    HW271418   6.583   9.188   9.035
22191SOL     OW71419   6.016   7.929   7.619
22191SOL    HW171420   6.075   7.997   7.650
22191SOL    HW271421   5.935   7.975   7.595
22192SOL     OW71422   5.708   8.579   8.937
22192SOL    HW171423   5.710   8.528   9.018
22192SOL    HW271424   5.715   8.514   8.867
22193SOL     OW71425   6.882   8.461   8.635
22193SOL    HW171426   6.908   8.418   8.553
22193SOL    HW271427   6.804   8.511   8.611
22194SOL     OW71428   7.316   9.161   8.572
22194SOL    HW171429   7.394   9.196   8.528
22194SOL    HW271430   7.320   9.067   8.555
22195SOL     OW71431   6.812   9.155   8.471
22195SOL    HW171432   6.899   9.194   8.460
22195SOL    HW271433   6.827   9.077   8.524
22196SOL     OW71434   5.658   8.716   8.473
22196SOL    HW171435   5.662   8.720   8.568
22196SOL    HW271436   5.584   8.773   8.450
22197SOL     OW71437   6.287   9.123   9.178
22197SOL    HW171438   6.222   9.193   9.164
22197SOL    HW271439   6.356   9.142   9.115
22198SOL     OW71440   7.332   7.630   7.909
22198SOL    HW171441   7.396   7.610   7.840
22198SOL    HW271442   7.311   7.546   7.947
22199SOL     OW71443   6.966   9.020   7.971
22199SOL    HW171444   7.030   9.050   7.908
22199SOL    HW271445   6.905   9.093   7.981
22200SOL     OW71446   5.789   9.277   9.379
22200SOL    HW171447   5.745   9.193   9.394
22200SOL    HW271448   5.735   9.340   9.426
22201SOL     OW71449   6.827   8.345   8.061
22201SOL    HW171450   6.902   8.290   8.086
22201SOL    HW271451   6.865   8.418   8.014
22202SOL     OW71452   6.393   8.757   8.870
22202SOL    HW171453   6.369   8.775   8.960
22202SOL    HW271454   6.339   8.816   8.818
22203SOL     OW71455   6.180   8.978   7.577
22203SOL    HW171456   6.204   9.018   7.493
22203SOL    HW271457   6.161   9.052   7.635
22204SOL     OW71458   7.186   9.196   8.825
22204SOL    HW171459   7.237   9.192   8.744
22204SOL    HW271460   7.173   9.290   8.840
22205SOL     OW71461   7.438   7.607   8.368
22205SOL    HW171462   7.470   7.519   8.347
22205SOL    HW271463   7.432   7.651   8.284
22206SOL     OW71464   5.834   7.735   8.189
22206SOL    HW171465   5.743   7.757   8.170
22206SOL    HW271466   5.841   7.741   8.284
22207SOL     OW71467   6.794   9.054   7.390
22207SOL    HW171468   6.784   9.072   7.484
22207SOL    HW271469   6.797   9.140   7.349
22208SOL     OW71470   6.401   8.505   8.737
22208SOL    HW171471   6.400   8.546   8.650
22208SOL    HW271472   6.407   8.578   8.798
22209SOL     OW71473   6.521   8.315   7.693
22209SOL    HW171474   6.584   8.384   7.671
22209SOL    HW271475   6.570   8.255   7.749
22210SOL     OW71476   7.085   9.075   7.428
22210SOL    HW171477   7.064   9.135   7.499
22210SOL    HW271478   6.999   9.045   7.396
22211SOL     OW71479   5.974   8.665   8.955
22211SOL    HW171480   5.978   8.745   8.904
22211SOL    HW271481   5.883   8.637   8.949
22212SOL     OW71482   7.197   8.763   8.719
22212SOL    HW171483   7.243   8.736   8.799
22212SOL    HW271484   7.131   8.826   8.749
22213SOL     OW71485   6.675   8.556   8.168
22213SOL    HW171486   6.605   8.512   8.217
22213SOL    HW271487   6.728   8.485   8.132
22214SOL     OW71488   6.667   7.657   8.386
22214SOL    HW171489   6.671   7.606   8.305
22214SOL    HW271490   6.635   7.596   8.452
22215SOL     OW71491   6.294   8.810   7.765
22215SOL    HW171492   6.245   8.855   7.696
22215SOL    HW271493   6.294   8.871   7.839
22216SOL     OW71494   7.332   7.836   8.861
22216SOL    HW171495   7.387   7.915   8.868
22216SOL    HW271496   7.365   7.791   8.784
22217SOL     OW71497   5.833   8.767   7.783
22217SOL    HW171498   5.756   8.765   7.727
22217SOL    HW271499   5.808   8.824   7.856
22218SOL     OW71500   5.716   8.417   9.157
22218SOL    HW171501   5.644   8.385   9.210
22218SOL    HW271502   5.792   8.413   9.215
22219SOL     OW71503   6.299   7.593   8.865
22219SOL    HW171504   6.393   7.590   8.849
22219SOL    HW271505   6.289   7.636   8.950
22220SOL     OW71506   5.729   7.848   7.406
22220SOL    HW171507   5.633   7.840   7.399
22220SOL    HW271508   5.744   7.942   7.415
22221SOL     OW71509   7.064   8.280   8.767
22221SOL    HW171510   7.002   8.345   8.735
22221SOL    HW271511   7.107   8.323   8.841
22222SOL     OW71512   5.606   7.622   7.748
22222SOL    HW171513   5.578   7.714   7.738
22222SOL    HW271514   5.691   7.618   7.705
22223SOL     OW71515   6.739   8.809   7.598
22223SOL    HW171516   6.649   8.803   7.566
22223SOL    HW271517   6.749   8.900   7.626
22224SOL     OW71518   6.239   8.318   8.864
22224SOL    HW171519   6.278   8.393   8.819
22224SOL    HW271520   6.309   8.287   8.922
22225SOL     OW71521   7.076   9.233   8.440
22225SOL    HW171522   7.099   9.319   8.404
22225SOL    HW271523   7.153   9.208   8.492
22226SOL     OW71524   7.034   8.609   9.054
22226SOL    HW171525   7.003   8.650   9.135
22226SOL    HW271526   7.123   8.644   9.042
22227SOL     OW71527   5.904   9.188   9.010
22227SOL    HW171528   5.829   9.245   8.998
22227SOL    HW271529   5.870   9.113   9.059
22228SOL     OW71530   7.335   8.335   8.657
22228SOL    HW171531   7.251   8.294   8.677
22228SOL    HW271532   7.313   8.413   8.606
22229SOL     OW71533   6.806   7.762   7.910
22229SOL    HW171534   6.871   7.693   7.918
22229SOL    HW271535   6.811   7.810   7.993
22230SOL     OW71536   6.227   8.134   8.109
22230SOL    HW171537   6.253   8.226   8.116
22230SOL    HW271538   6.153   8.135   8.048
22231SOL     OW71539   7.364   7.785   9.131
22231SOL    HW171540   7.345   7.816   9.042
22231SOL    HW271541   7.286   7.735   9.156
22232SOL     OW71542   7.265   8.403   8.926
22232SOL    HW171543   7.263   8.495   8.951
22232SOL    HW271544   7.328   8.399   8.854
22233SOL     OW71545   6.471   8.819   7.500
22233SOL    HW171546   6.421   8.870   7.564
22233SOL    HW271547   6.483   8.879   7.426
22234SOL     OW71548   6.295   9.301   8.466
22234SOL    HW171549   6.246   9.358   8.406
22234SOL    HW271550   6.326   9.230   8.410
22235SOL     OW71551   6.488   8.412   8.321
22235SOL    HW171552   6.543   8.351   8.369
22235SOL    HW271553   6.445   8.464   8.388
22236SOL     OW71554   6.721   8.481   7.599
22236SOL    HW171555   6.685   8.519   7.518
22236SOL    HW271556   6.782   8.414   7.568
22237SOL     OW71557   7.424   9.001   8.245
22237SOL    HW171558   7.356   9.040   8.191
22237SOL    HW271559   7.378   8.963   8.319
22238SOL     OW71560   5.819   8.746   9.311
22238SOL    HW171561   5.727   8.724   9.320
22238SOL    HW271562   5.848   8.764   9.401
22239SOL     OW71563   5.676   8.625   8.114
22239SOL    HW171564   5.724   8.592   8.190
22239SOL    HW271565   5.744   8.662   8.057
22240SOL     OW71566   6.282   8.851   9.111
22240SOL    HW171567   6.195   8.821   9.136
22240SOL    HW271568   6.283   8.944   9.135
22241SOL     OW71569   7.424   7.629   8.693
22241SOL    HW171570   7.438   7.562   8.760
22241SOL    HW271571   7.511   7.666   8.678
22242SOL     OW71572   5.985   7.861   7.991
22242SOL    HW171573   6.008   7.788   7.934
22242SOL    HW271574   5.938   7.820   8.064
22243SOL     OW71575   7.296   8.889   8.483
22243SOL    HW171576   7.207   8.887   8.450
22243SOL    HW271577   7.291   8.849   8.569
22244SOL     OW71578   5.952   8.007   8.768
22244SOL    HW171579   5.994   7.944   8.827
22244SOL    HW271580   5.967   7.971   8.680
22245SOL     OW71581   7.070   7.637   8.654
22245SOL    HW171582   7.094   7.619   8.744
22245SOL    HW271583   7.002   7.704   8.660
22246SOL     OW71584   6.585   7.443   8.553
22246SOL    HW171585   6.541   7.406   8.629
22246SOL    HW271586   6.672   7.403   8.553
22247SOL     OW71587   6.542   8.681   7.812
22247SOL    HW171588   6.456   8.692   7.772
22247SOL    HW271589   6.545   8.745   7.882
22248SOL     OW71590   6.247   8.945   8.724
22248SOL    HW171591   6.220   9.024   8.772
22248SOL    HW271592   6.323   8.973   8.673
22249SOL     OW71593   6.964   7.452   7.660
22249SOL    HW171594   7.030   7.386   7.680
22249SOL    HW271595   6.947   7.442   7.567
22250SOL     OW71596   6.806   7.901   8.145
22250SOL    HW171597   6.767   7.988   8.145
22250SOL    HW271598   6.843   7.892   8.233
22251SOL     OW71599   7.136   7.705   8.358
22251SOL    HW171600   7.047   7.736   8.378
22251SOL    HW271601   7.167   7.765   8.291
22252SOL     OW71602   5.631   8.502   7.715
22252SOL    HW171603   5.723   8.498   7.690
22252SOL    HW271604   5.611   8.415   7.749
22253SOL     OW71605   6.488   9.122   7.831
22253SOL    HW171606   6.406   9.085   7.864
22253SOL    HW271607   6.489   9.212   7.863
22254SOL     OW71608   7.252   8.082   9.560
22254SOL    HW171609   7.269   8.063   9.468
22254SOL    HW271610   7.223   7.999   9.597
22255SOL     OW71611   5.779   9.192   9.750
22255SOL    HW171612   5.784   9.254   9.823
22255SOL    HW271613   5.856   9.211   9.697
22256SOL     OW71614   5.812   8.923   9.808
22256SOL    HW171615   5.795   9.017   9.801
22256SOL    HW271616   5.730   8.886   9.842
22257SOL     OW71617   6.176   8.416   9.447
22257SOL    HW171618   6.235   8.374   9.385
22257SOL    HW271619   6.233   8.468   9.503
22258SOL     OW71620   5.688   8.117   9.831
22258SOL    HW171621   5.685   8.045   9.894
22258SOL    HW271622   5.661   8.194   9.881
22259SOL     OW71623   7.438   9.217   9.634
22259SOL    HW171624   7.514   9.204   9.690
22259SOL    HW271625   7.450   9.305   9.597
22260SOL     OW71626   5.650   9.035   9.422
22260SOL    HW171627   5.624   8.945   9.443
22260SOL    HW271628   5.599   9.089   9.483
22261SOL     OW71629   7.337   8.509   9.758
22261SOL    HW171630   7.326   8.603   9.745
22261SOL    HW271631   7.398   8.502   9.831
22262SOL     OW71632   6.225   8.765   9.994
22262SOL    HW171633   6.168   8.692   9.970
22262SOL    HW271634   6.225   8.821   9.916
22263SOL     OW71635   6.365   7.430   9.792
22263SOL    HW171636   6.415   7.511   9.792
22263SOL    HW271637   6.274   7.458   9.802
22264SOL     OW71638   6.129   8.167   9.571
22264SOL    HW171639   6.148   8.256   9.541
22264SOL    HW271640   6.072   8.178   9.647
22265SOL     OW71641   7.179   9.111   9.613
22265SOL    HW171642   7.267   9.148   9.626
22265SOL    HW271643   7.179   9.082   9.522
22266SOL     OW71644   6.663   8.123   9.678
22266SOL    HW171645   6.728   8.185   9.709
22266SOL    HW271646   6.609   8.104   9.755
22267SOL     OW71647   5.622   8.263   0.060
22267SOL    HW171648   5.651   8.174   0.082
22267SOL    HW271649   5.622   8.309   0.144
22268SOL     OW71650   6.535   7.732   9.495
22268SOL    HW171651   6.474   7.803   9.471
22268SOL    HW271652   6.615   7.777   9.520
22269SOL     OW71653   6.562   8.898   9.827
22269SOL    HW171654   6.557   8.994   9.828
22269SOL    HW271655   6.652   8.879   9.801
22270SOL     OW71656   5.903   9.318   0.206
22270SOL    HW171657   5.938   9.247   0.261
22270SOL    HW271658   5.981   9.361   0.171
22271SOL     OW71659   5.897   8.432   9.558
22271SOL    HW171660   5.989   8.458   9.552
22271SOL    HW271661   5.882   8.380   9.479
22272SOL     OW71662   6.685   9.138   9.488
22272SOL    HW171663   6.718   9.193   9.559
22272SOL    HW271664   6.753   9.143   9.420
22273SOL     OW71665   7.216   8.785   9.407
22273SOL    HW171666   7.164   8.863   9.389
22273SOL    HW271667   7.152   8.715   9.418
22274SOL     OW71668   6.015   9.256   9.606
22274SOL    HW171669   6.046   9.305   9.682
22274SOL    HW271670   6.088   9.199   9.582
22275SOL     OW71671   7.034   7.590   9.785
22275SOL    HW171672   7.016   7.561   9.696
22275SOL    HW271673   7.130   7.592   9.790
22276SOL     OW71674   5.963   8.133   9.786
22276SOL    HW171675   5.985   8.040   9.797
22276SOL    HW271676   5.868   8.136   9.793
22277SOL     OW71677   6.248   7.469   9.386
22277SOL    HW171678   6.305   7.536   9.426
22277SOL    HW271679   6.163   7.512   9.376
22278SOL     OW71680   6.116   7.547   9.809
22278SOL    HW171681   6.035   7.559   9.859
22278SOL    HW271682   6.108   7.607   9.735
22279SOL     OW71683   6.920   8.706   9.284
22279SOL    HW171684   6.962   8.639   9.338
22279SOL    HW271685   6.877   8.764   9.348
22280SOL     OW71686   6.507   7.663   9.765
22280SOL    HW171687   6.500   7.680   9.671
22280SOL    HW271688   6.599   7.678   9.786
22281SOL     OW71689   6.037   8.562   0.008
22281SOL    HW171690   5.983   8.595   0.079
22281SOL    HW271691   5.979   8.561   9.932
22282SOL     OW71692   6.326   7.833   9.894
22282SOL    HW171693   6.323   7.899   9.824
22282SOL    HW271694   6.387   7.767   9.862
22283SOL     OW71695   7.468   8.240   9.621
22283SOL    HW171696   7.505   8.220   9.707
22283SOL    HW271697   7.399   8.176   9.609
22284SOL     OW71698   6.092   8.870   9.434
22284SOL    HW171699   6.028   8.838   9.498
22284SOL    HW271700   6.099   8.800   9.369
22285SOL     OW71701   6.098   7.724   9.585
22285SOL    HW171702   6.062   7.683   9.507
22285SOL    HW271703   6.160   7.789   9.552
22286SOL     OW71704   6.349   8.523   9.641
22286SOL    HW171705   6.358   8.516   9.736
22286SOL    HW271706   6.412   8.460   9.606
22287SOL     OW71707   5.870   8.585   9.791
22287SOL    HW171708   5.882   8.663   9.737
22287SOL    HW271709   5.871   8.512   9.729
22288SOL     OW71710   6.815   8.847   9.738
22288SOL    HW171711   6.872   8.922   9.757
22288SOL    HW271712   6.867   8.770   9.762
22289SOL     OW71713   6.764   7.898   9.550
22289SOL    HW171714   6.733   7.978   9.593
22289SOL    HW271715   6.812   7.929   9.473
22290SOL     OW71716   5.899   7.579   9.996
22290SOL    HW171717   5.949   7.639   0.051
22290SOL    HW271718   5.908   7.494   0.040
22291SOL     OW71719   7.174   7.839   9.667
22291SOL    HW171720   7.231   7.772   9.704
22291SOL    HW271721   7.102   7.847   9.730
22292SOL     OW71722   7.118   7.704   9.427
22292SOL    HW171723   7.063   7.639   9.470
22292SOL    HW271724   7.140   7.768   9.496
22293SOL     OW71725   5.595   8.745   9.488
22293SOL    HW171726   5.508   8.775   9.462
22293SOL    HW271727   5.583   8.654   9.515
22294SOL     OW71728   6.314   7.978   9.655
22294SOL    HW171729   6.356   7.967   9.569
22294SOL    HW271730   6.253   8.050   9.643
22295SOL     OW71731   5.961   8.007   9.417
22295SOL    HW171732   6.033   8.064   9.445
22295SOL    HW271733   5.939   7.957   9.496
22296SOL     OW71734   7.319   7.617   9.756
22296SOL    HW171735   7.379   7.618   9.682
22296SOL    HW271736   7.359   7.555   9.818
22297SOL     OW71737   6.962   9.073   9.774
22297SOL    HW171738   7.043   9.086   9.725
22297SOL    HW271739   6.907   9.148   9.749
22298SOL     OW71740   6.199   9.121   9.444
22298SOL    HW171741   6.239   9.128   9.357
22298SOL    HW271742   6.163   9.033   9.448
22299SOL     OW71743   6.847   9.012   9.294
22299SOL    HW171744   6.797   8.951   9.348
22299SOL    HW271745   6.805   9.009   9.209
22300SOL     OW71746   6.520   8.335   9.551
22300SOL    HW171747   6.585   8.372   9.491
22300SOL    HW271748   6.565   8.262   9.592
22301SOL     OW71749   7.111   9.050   9.348
22301SOL    HW171750   7.018   9.039   9.330
22301SOL    HW271751   7.150   9.072   9.263
22302SOL     OW71752   6.233   8.967   9.812
22302SOL    HW171753   6.300   8.985   9.745
22302SOL    HW271754   6.213   9.053   9.849
22303SOL     OW71755   5.858   8.786   9.582
22303SOL    HW171756   5.764   8.776   9.566
22303SOL    HW271757   5.862   8.847   9.656
22304SOL     OW71758   5.583   7.702   9.592
22304SOL    HW171759   5.519   7.760   9.549
22304SOL    HW271760   5.606   7.749   9.673
22305SOL     OW71761   6.741   8.814   9.477
22305SOL    HW171762   6.743   8.718   9.479
22305SOL    HW271763   6.774   8.840   9.564
22306SOL     OW71764   6.778   7.706   9.758
22306SOL    HW171765   6.870   7.685   9.777
22306SOL    HW271766   6.782   7.774   9.691
22307SOL     OW71767   6.085   8.129   0.038
22307SOL    HW171768   6.125   8.212   0.064
22307SOL    HW271769   6.054   8.144   9.949
22308SOL     OW71770   6.713   8.428   9.377
22308SOL    HW171771   6.771   8.478   9.435
22308SOL    HW271772   6.765   8.351   9.352
22309SOL     OW71773   5.635   8.715   9.885
22309SOL    HW171774   5.627   8.724   9.980
22309SOL    HW271775   5.714   8.662   9.873
22310SOL     OW71776   6.044   7.874   9.816
22310SOL    HW171777   6.061   7.818   9.739
22310SOL    HW271778   6.122   7.863   9.871
22311SOL     OW71779   6.449   8.782   9.594
22311SOL    HW171780   6.408   8.696   9.597
22311SOL    HW271781   6.470   8.802   9.685
22312SOL     OW71782   6.975   7.494   9.537
22312SOL    HW171783   7.029   7.416   9.546
22312SOL    HW271784   6.885   7.461   9.536
22313SOL     OW71785   5.617   8.465   9.561
22313SOL    HW171786   5.712   8.470   9.564
22313SOL    HW271787   5.597   8.371   9.567
22314SOL     OW71788   6.411   9.089   9.628
22314SOL    HW171789   6.342   9.135   9.578
22314SOL    HW271790   6.446   9.156   9.687
22315SOL     OW71791   5.809   9.594   0.967
22315SOL    HW171792   5.834   9.545   1.046
22315SOL    HW271793   5.715   9.577   0.957
22316SOL     OW71794   5.593   9.671   0.681
22316SOL    HW171795   5.571   9.633   0.766
22316SOL    HW271796   5.539   9.623   0.618
22317SOL     OW71797   7.264   9.937   0.119
22317SOL    HW171798   7.330   9.911   0.054
22317SOL    HW271799   7.265   9.866   0.184
22318SOL     OW71800   6.052   9.675   1.420
22318SOL    HW171801   6.115   9.626   1.473
22318SOL    HW271802   5.968   9.631   1.435
22319SOL     OW71803   7.192   9.726   0.784
22319SOL    HW171804   7.126   9.737   0.715
22319SOL    HW271805   7.275   9.727   0.737
22320SOL     OW71806   7.220   9.600   1.474
22320SOL    HW171807   7.214   9.584   1.380
22320SOL    HW271808   7.253   9.518   1.510
22321SOL     OW71809   5.655   9.946   0.660
22321SOL    HW171810   5.648   9.851   0.663
22321SOL    HW271811   5.734   9.963   0.609
22322SOL     OW71812   5.896   9.550   1.836
22322SOL    HW171813   5.912   9.639   1.804
22322SOL    HW271814   5.801   9.545   1.847
22323SOL     OW71815   6.855   9.705   0.962
22323SOL    HW171816   6.764   9.676   0.957
22323SOL    HW271817   6.899   9.637   1.013
22324SOL     OW71818   6.326   9.869   1.456
22324SOL    HW171819   6.329   9.869   1.551
22324SOL    HW271820   6.347   9.958   1.430
22325SOL     OW71821   6.983   9.798   1.740
22325SOL    HW171822   6.968   9.875   1.794
22325SOL    HW271823   7.034   9.739   1.795
22326SOL     OW71824   6.518   9.699   1.281
22326SOL    HW171825   6.549   9.776   1.330
22326SOL    HW271826   6.598   9.654   1.255
22327SOL     OW71827   6.630   9.969   0.379
22327SOL    HW171828   6.687   9.980   0.455
22327SOL    HW271829   6.563   9.907   0.409
22328SOL     OW71830   6.424   9.603   0.242
22328SOL    HW171831   6.452   9.599   0.150
22328SOL    HW271832   6.434   9.513   0.273
22329SOL     OW71833   6.139   9.461   0.929
22329SOL    HW171834   6.155   9.479   1.021
22329SOL    HW271835   6.138   9.547   0.887
22330SOL     OW71836   7.072   9.985   0.786
22330SOL    HW171837   7.109   9.919   0.844
22330SOL    HW271838   7.113   0.067   0.815
22331SOL     OW71839   5.803   9.543   1.466
22331SOL    HW171840   5.754   9.623   1.485
22331SOL    HW271841   5.752   9.473   1.506
22332SOL     OW71842   6.990   9.426   0.394
22332SOL    HW171843   6.989   9.416   0.299
22332SOL    HW271844   7.081   9.449   0.414
22333SOL     OW71845   6.128   9.418   0.087
22333SOL    HW171846   6.202   9.357   0.093
22333SOL    HW271847   6.115   9.431   9.993
22334SOL     OW71848   6.346   9.602   1.731
22334SOL    HW171849   6.433   9.565   1.748
22334SOL    HW271850   6.359   9.696   1.734
22335SOL     OW71851   6.920   9.878   1.467
22335SOL    HW171852   6.950   9.850   1.554
22335SOL    HW271853   6.983   9.946   1.442
22336SOL     OW71854   6.485   9.833   0.938
22336SOL    HW171855   6.454   9.819   0.849
22336SOL    HW271856   6.528   9.751   0.962
22337SOL     OW71857   6.173   9.307   0.443
22337SOL    HW171858   6.136   9.372   0.503
22337SOL    HW271859   6.264   9.334   0.431
22338SOL     OW71860   6.493   9.616   0.513
22338SOL    HW171861   6.494   9.642   0.421
22338SOL    HW271862   6.480   9.521   0.512
22339SOL     OW71863   6.656   9.918   1.388
22339SOL    HW171864   6.623   9.980   1.454
22339SOL    HW271865   6.746   9.901   1.415
22340SOL     OW71866   6.734   9.835   9.958
22340SOL    HW171867   6.642   9.810   9.965
22340SOL    HW271868   6.760   9.853   0.049
22341SOL     OW71869   5.724   9.820   1.491
22341SOL    HW171870   5.781   9.854   1.423
22341SOL    HW271871   5.636   9.826   1.455
22342SOL     OW71872   6.165   9.511   1.198
22342SOL    HW171873   6.184   9.429   1.243
22342SOL    HW271874   6.070   9.518   1.201
22343SOL     OW71875   6.378   9.791   0.688
22343SOL    HW171876   6.297   9.797   0.638
22343SOL    HW271877   6.433   9.731   0.638
22344SOL     OW71878   6.573   9.377   0.770
22344SOL    HW171879   6.540   9.351   0.684
22344SOL    HW271880   6.569   9.298   0.823
22345SOL     OW71881   7.073   9.865   1.065
22345SOL    HW171882   6.995   9.822   1.029
22345SOL    HW271883   7.040   9.947   1.102
22346SOL     OW71884   6.150   9.609   0.297
22346SOL    HW171885   6.130   9.541   0.233
22346SOL    HW271886   6.245   9.618   0.295
22347SOL     OW71887   6.507   9.371   1.385
22347SOL    HW171888   6.530   9.359   1.293
22347SOL    HW271889   6.584   9.413   1.424
22348SOL     OW71890   6.820   9.668   1.303
22348SOL    HW171891   6.865   9.738   1.349
22348SOL    HW271892   6.884   9.634   1.241
22349SOL     OW71893   6.151   9.728   0.852
22349SOL    HW171894   6.122   9.730   0.760
22349SOL    HW271895   6.243   9.755   0.848
22350SOL     OW71896   7.137   9.934   0.523
22350SOL    HW171897   7.116   9.949   0.615
22350SOL    HW271898   7.200   0.003   0.501
22351SOL     OW71899   6.584   9.470   1.787
22351SOL    HW171900   6.652   9.531   1.759
22351SOL    HW271901   6.620   9.384   1.769
22352SOL     OW71902   6.070   9.346   1.772
22352SOL    HW171903   6.025   9.295   1.704
22352SOL    HW271904   6.014   9.423   1.783
22353SOL     OW71905   6.825   9.859   0.216
22353SOL    HW171906   6.855   9.792   0.277
22353SOL    HW271907   6.756   9.906   0.263
22354SOL     OW71908   5.890   9.471   1.207
22354SOL    HW171909   5.847   9.498   1.289
22354SOL    HW271910   5.882   9.376   1.207
22355SOL     OW71911   6.276   9.879   1.140
22355SOL    HW171912   6.341   9.881   1.070
22355SOL    HW271913   6.240   9.967   1.143
22356SOL     OW71914   5.925   9.382   0.626
22356SOL    HW171915   5.910   9.476   0.640
22356SOL    HW271916   5.930   9.345   0.714
22357SOL     OW71917   7.248   9.759   0.330
22357SOL    HW171918   7.243   9.668   0.357
22357SOL    HW271919   7.204   9.807   0.400
22358SOL     OW71920   5.886   0.057   0.896
22358SOL    HW171921   5.962   0.115   0.906
22358SOL    HW271922   5.908   9.980   0.948
22359SOL     OW71923   5.953   9.821   1.026
22359SOL    HW171924   5.891   9.750   1.008
22359SOL    HW271925   6.033   9.795   0.979
22360SOL     OW71926   6.739   9.679   1.704
22360SOL    HW171927   6.695   9.738   1.765
22360SOL    HW271928   6.829   9.710   1.702
22361SOL     OW71929   6.724   9.499   1.494
22361SOL    HW171930   6.725   9.562   1.567
22361SOL    HW271931   6.762   9.547   1.421
22362SOL     OW71932   5.550   9.830   1.005
22362SOL    HW171933   5.594   9.914   1.017
22362SOL    HW271934   5.485   9.826   1.076
22363SOL     OW71935   5.816   9.808   1.754
22363SOL    HW171936   5.782   9.815   1.664
22363SOL    HW271937   5.864   9.889   1.768
22364SOL     OW71938   6.353   9.879   0.327
22364SOL    HW171939   6.376   9.794   0.289
22364SOL    HW271940   6.307   9.925   0.257
22365SOL     OW71941   7.267   9.490   0.434
22365SOL    HW171942   7.344   9.479   0.377
22365SOL    HW271943   7.268   9.413   0.491
22366SOL     OW71944   7.411   9.495   0.852
22366SOL    HW171945   7.455   9.409   0.856
22366SOL    HW271946   7.319   9.475   0.865
22367SOL     OW71947   5.869   9.643   0.699
22367SOL    HW171948   5.777   9.660   0.677
22367SOL    HW271949   5.868   9.631   0.794
22368SOL     OW71950   6.604   9.577   0.961
22368SOL    HW171951   6.596   9.528   0.879
22368SOL    HW271952   6.599   9.510   1.030
22369SOL     OW71953   6.294   9.529   1.473
22369SOL    HW171954   6.372   9.479   1.445
22369SOL    HW271955   6.312   9.551   1.564
22370SOL     OW71956   5.667   9.603   0.067
22370SOL    HW171957   5.608   9.665   0.109
22370SOL    HW271958   5.711   9.654   9.999
22371SOL     OW71959   5.647   9.414   0.275
22371SOL    HW171960   5.635   9.474   0.201
22371SOL    HW271961   5.737   9.384   0.268
22372SOL     OW71962   6.345   9.881   1.736
22372SOL    HW171963   6.264   9.929   1.752
22372SOL    HW271964   6.414   9.936   1.774
22373SOL     OW71965   6.880   9.692   0.427
22373SOL    HW171966   6.909   9.601   0.424
22373SOL    HW271967   6.888   9.718   0.519
22374SOL     OW71968   6.762   0.166   0.047
22374SOL    HW171969   6.772   0.223   9.971
22374SOL    HW271970   6.851   0.138   0.068
22375SOL     OW71971   6.111   9.727   0.576
22375SOL    HW171972   6.126   9.696   0.486
22375SOL    HW271973   6.020   9.704   0.594
22376SOL     OW71974   5.911   9.883   1.293
22376SOL    HW171975   5.972   9.824   1.338
22376SOL    HW271976   5.923   9.862   1.200
22377SOL     OW71977   6.971   9.514   1.124
22377SOL    HW171978   7.059   9.524   1.160
22377SOL    HW271979   6.946   9.425   1.145
22378SOL     OW71980   6.599   9.331   1.118
22378SOL    HW171981   6.555   9.270   1.059
22378SOL    HW271982   6.691   9.302   1.119
22379SOL     OW71983   6.909   9.777   0.695
22379SOL    HW171984   6.941   9.865   0.713
22379SOL    HW271985   6.882   9.743   0.780
22380SOL     OW71986   7.134   9.482   0.891
22380SOL    HW171987   7.088   9.503   0.972
22380SOL    HW271988   7.145   9.566   0.846
22381SOL     OW71989   5.807   9.589   2.851
22381SOL    HW171990   5.831   9.569   2.941
22381SOL    HW271991   5.718   9.555   2.841
22382SOL     OW71992   5.608   9.714   2.500
22382SOL    HW171993   5.527   9.740   2.544
22382SOL    HW271994   5.584   9.638   2.448
22383SOL     OW71995   7.322   9.881   1.898
22383SOL    HW171996   7.416   9.867   1.893
22383SOL    HW271997   7.310   9.941   1.972
22384SOL     OW71998   6.063   9.710   3.377
22384SOL    HW171999   6.124   9.751   3.315
22384SOL    HW272000   6.056   9.619   3.346
22385SOL     OW72001   7.123   9.734   2.634
22385SOL    HW172002   7.040   9.722   2.588
22385SOL    HW272003   7.148   9.825   2.616
22386SOL     OW72004   7.210   9.356   3.352
22386SOL    HW172005   7.263   9.417   3.301
22386SOL    HW272006   7.169   9.410   3.419
22387SOL     OW72007   5.737   9.968   2.456
22387SOL    HW172008   5.697   9.882   2.471
22387SOL    HW272009   5.665   0.021   2.421
22388SOL     OW72010   6.404   9.319   2.382
22388SOL    HW172011   6.446   9.395   2.341
22388SOL    HW272012   6.312   9.344   2.390
22389SOL     OW72013   5.929   9.514   3.626
22389SOL    HW172014   5.981   9.594   3.614
22389SOL    HW272015   5.849   9.544   3.668
22390SOL     OW72016   6.802   9.709   2.860
22390SOL    HW172017   6.739   9.638   2.852
22390SOL    HW272018   6.876   9.683   2.805
22391SOL     OW72019   6.358   9.975   3.369
22391SOL    HW172020   6.337   9.899   3.423
22391SOL    HW272021   6.351   9.944   3.279
22392SOL     OW72022   6.989   9.760   3.542
22392SOL    HW172023   7.054   9.818   3.583
22392SOL    HW272024   6.975   9.798   3.455
22393SOL     OW72025   6.503   9.783   3.156
22393SOL    HW172026   6.565   9.854   3.171
22393SOL    HW272027   6.522   9.753   3.067
22394SOL     OW72028   6.619   9.982   2.263
22394SOL    HW172029   6.689   0.046   2.260
22394SOL    HW272030   6.552   0.022   2.319
22395SOL     OW72031   6.503   9.620   2.001
22395SOL    HW172032   6.547   9.700   1.972
22395SOL    HW272033   6.533   9.552   1.940
22396SOL     OW72034   7.194   9.911   3.662
22396SOL    HW172035   7.207   9.981   3.598
22396SOL    HW272036   7.250   9.840   3.632
22397SOL     OW72037   6.179   9.457   2.798
22397SOL    HW172038   6.164   9.473   2.891
22397SOL    HW272039   6.231   9.533   2.770
22398SOL     OW72040   5.766   9.605   3.370
22398SOL    HW172041   5.735   9.688   3.333
22398SOL    HW272042   5.812   9.630   3.450
22399SOL     OW72043   6.942   9.364   2.262
22399SOL    HW172044   7.006   9.315   2.210
22399SOL    HW272045   6.967   9.456   2.252
22400SOL     OW72046   7.109   9.509   3.561
22400SOL    HW172047   7.115   9.509   3.656
22400SOL    HW272048   7.054   9.585   3.540
22401SOL     OW72049   6.218   9.514   1.961
22401SOL    HW172050   6.263   9.547   1.884
22401SOL    HW272051   6.168   9.439   1.929
22402SOL     OW72052   6.344   9.542   3.565
22402SOL    HW172053   6.435   9.521   3.589
22402SOL    HW272054   6.339   9.637   3.571
22403SOL     OW72055   6.952   9.893   3.306
22403SOL    HW172056   7.034   9.942   3.316
22403SOL    HW272057   6.891   9.957   3.269
22404SOL     OW72058   6.384   9.663   2.746
22404SOL    HW172059   6.414   9.705   2.666
22404SOL    HW272060   6.461   9.617   2.780
22405SOL     OW72061   6.146   9.412   2.364
22405SOL    HW172062   6.070   9.390   2.417
22405SOL    HW272063   6.147   9.508   2.361
22406SOL     OW72064   5.871   9.361   2.039
22406SOL    HW172065   5.911   9.427   1.982
22406SOL    HW272066   5.944   9.317   2.081
22407SOL     OW72067   6.490   9.551   2.261
22407SOL    HW172068   6.522   9.560   2.171
22407SOL    HW272069   6.569   9.554   2.314
22408SOL     OW72070   6.625   9.938   3.438
22408SOL    HW172071   6.533   9.952   3.415
22408SOL    HW272072   6.672   9.948   3.356
22409SOL     OW72073   6.637   9.839   1.905
22409SOL    HW172074   6.638   9.929   1.872
22409SOL    HW272075   6.702   9.838   1.975
22410SOL     OW72076   5.706   9.855   3.259
22410SOL    HW172077   5.794   9.873   3.226
22410SOL    HW272078   5.682   9.935   3.307
22411SOL     OW72079   6.128   9.474   3.065
22411SOL    HW172080   6.180   9.483   3.144
22411SOL    HW272081   6.042   9.509   3.089
22412SOL     OW72082   6.494   9.790   2.519
22412SOL    HW172083   6.451   9.868   2.485
22412SOL    HW272084   6.534   9.749   2.443
22413SOL     OW72085   6.590   9.354   2.608
22413SOL    HW172086   6.536   9.356   2.528
22413SOL    HW272087   6.564   9.273   2.652
22414SOL     OW72088   7.179   9.880   2.873
22414SOL    HW172089   7.166   9.801   2.821
22414SOL    HW272090   7.181   9.951   2.809
22415SOL     OW72091   6.530   9.363   3.233
22415SOL    HW172092   6.547   9.345   3.141
22415SOL    HW272093   6.602   9.420   3.260
22416SOL     OW72094   6.876   9.681   3.134
22416SOL    HW172095   6.898   9.757   3.188
22416SOL    HW272096   6.840   9.719   3.054
22417SOL     OW72097   6.098   9.922   2.696
22417SOL    HW172098   6.149   9.944   2.618
22417SOL    HW272099   6.163   9.911   2.765
22418SOL     OW72100   6.602   9.485   3.650
22418SOL    HW172101   6.647   9.560   3.612
22418SOL    HW272102   6.646   9.409   3.612
22419SOL     OW72103   6.079   9.287   3.617
22419SOL    HW172104   6.040   9.246   3.540
22419SOL    HW272105   6.029   9.368   3.628
22420SOL     OW72106   6.808   9.819   2.120
22420SOL    HW172107   6.866   9.756   2.163
22420SOL    HW272108   6.764   9.864   2.192
22421SOL     OW72109   5.858   9.518   3.119
22421SOL    HW172110   5.818   9.546   3.202
22421SOL    HW272111   5.837   9.425   3.113
22422SOL     OW72112   6.269   9.869   2.903
22422SOL    HW172113   6.324   9.807   2.855
22422SOL    HW272114   6.329   9.938   2.930
22423SOL     OW72115   5.915   9.338   2.503
22423SOL    HW172116   5.883   9.428   2.514
22423SOL    HW272117   5.926   9.306   2.593
22424SOL     OW72118   6.981   9.641   2.260
22424SOL    HW172119   7.074   9.642   2.235
22424SOL    HW272120   6.974   9.709   2.328
22425SOL     OW72121   7.132   9.518   1.915
22425SOL    HW172122   7.051   9.469   1.897
22425SOL    HW272123   7.164   9.483   1.997
22426SOL     OW72124   5.913   0.133   2.759
22426SOL    HW172125   5.999   0.175   2.766
22426SOL    HW272126   5.932   0.041   2.744
22427SOL     OW72127   5.905   9.842   2.873
22427SOL    HW172128   5.873   9.754   2.853
22427SOL    HW272129   5.973   9.858   2.808
22428SOL     OW72130   6.722   9.695   3.527
22428SOL    HW172131   6.681   9.777   3.500
22428SOL    HW272132   6.814   9.718   3.543
22429SOL     OW72133   6.748   9.512   3.317
22429SOL    HW172134   6.733   9.579   3.383
22429SOL    HW272135   6.796   9.557   3.247
22430SOL     OW72136   5.577   9.811   3.015
22430SOL    HW172137   5.621   9.829   2.932
22430SOL    HW272138   5.641   9.836   3.082
22431SOL     OW72139   5.904   9.807   3.576
22431SOL    HW172140   5.960   9.786   3.501
22431SOL    HW272141   5.936   9.892   3.607
22432SOL     OW72142   6.372   9.880   2.126
22432SOL    HW172143   6.457   9.909   2.161
22432SOL    HW272144   6.339   9.956   2.078
22433SOL     OW72145   7.290   9.907   3.124
22433SOL    HW172146   7.232   9.900   3.048
22433SOL    HW272147   7.377   9.887   3.089
22434SOL     OW72148   6.225   9.796   3.165
22434SOL    HW172149   6.316   9.770   3.180
22434SOL    HW272150   6.223   9.827   3.075
22435SOL     OW72151   7.462   9.340   2.851
22435SOL    HW172152   7.543   9.294   2.830
22435SOL    HW272153   7.453   9.405   2.781
22436SOL     OW72154   5.844   9.589   2.572
22436SOL    HW172155   5.770   9.644   2.545
22436SOL    HW272156   5.847   9.598   2.667
22437SOL     OW72157   6.608   9.519   2.825
22437SOL    HW172158   6.617   9.474   2.742
22437SOL    HW272159   6.605   9.449   2.890
22438SOL     OW72160   7.321   9.676   3.284
22438SOL    HW172161   7.307   9.758   3.236
22438SOL    HW272162   7.344   9.612   3.217
22439SOL     OW72163   6.276   9.456   3.307
22439SOL    HW172164   6.364   9.436   3.277
22439SOL    HW272165   6.288   9.490   3.396
22440SOL     OW72166   5.632   9.637   1.884
22440SOL    HW172167   5.558   9.643   1.823
22440SOL    HW272168   5.690   9.709   1.858
22441SOL     OW72169   5.623   9.452   2.110
22441SOL    HW172170   5.601   9.518   2.045
22441SOL    HW272171   5.714   9.427   2.089
22442SOL     OW72172   6.336   9.814   3.610
22442SOL    HW172173   6.263   9.862   3.649
22442SOL    HW272174   6.411   9.832   3.667
22443SOL     OW72175   6.728   9.554   2.384
22443SOL    HW172176   6.801   9.534   2.327
22443SOL    HW272177   6.766   9.608   2.454
22444SOL     OW72178   7.322   9.688   3.560
22444SOL    HW172179   7.346   9.701   3.468
22444SOL    HW272180   7.264   9.612   3.559
22445SOL     OW72181   6.736   0.282   1.965
22445SOL    HW172182   6.739   0.377   1.959
22445SOL    HW272183   6.826   0.257   1.987
22446SOL     OW72184   7.377   9.483   3.093
22446SOL    HW172185   7.472   9.484   3.104
22446SOL    HW272186   7.364   9.445   3.006
22447SOL     OW72187   6.140   9.701   2.291
22447SOL    HW172188   6.044   9.696   2.288
22447SOL    HW272189   6.158   9.786   2.330
22448SOL     OW72190   5.949   9.897   3.136
22448SOL    HW172191   6.036   9.861   3.153
22448SOL    HW272192   5.935   9.881   3.043
22449SOL     OW72193   7.071   9.551   2.964
22449SOL    HW172194   7.149   9.582   3.009
22449SOL    HW272195   6.998   9.583   3.018
22450SOL     OW72196   6.595   9.282   2.974
22450SOL    HW172197   6.553   9.227   2.908
22450SOL    HW272198   6.684   9.247   2.983
22451SOL     OW72199   6.904   9.353   1.890
22451SOL    HW172200   6.855   9.331   1.811
22451SOL    HW272201   6.842   9.338   1.962
22452SOL     OW72202   7.152   9.455   2.713
22452SOL    HW172203   7.123   9.482   2.800
22452SOL    HW272204   7.167   9.536   2.666
22453SOL     OW72205   7.277   9.809   3.927
22453SOL    HW172206   7.262   9.878   3.862
22453SOL    HW272207   7.364   9.776   3.908
22454SOL     OW72208   5.996   9.604   5.321
22454SOL    HW172209   6.045   9.636   5.245
22454SOL    HW272210   5.905   9.601   5.292
22455SOL     OW72211   7.173   9.724   4.501
22455SOL    HW172212   7.105   9.757   4.442
22455SOL    HW272213   7.168   9.781   4.578
22456SOL     OW72214   7.173   9.448   5.122
22456SOL    HW172215   7.254   9.468   5.075
22456SOL    HW272216   7.172   9.508   5.196
22457SOL     OW72217   5.705   9.919   4.270
22457SOL    HW172218   5.626   9.892   4.223
22457SOL    HW272219   5.681   0.003   4.311
22458SOL     OW72220   6.406   9.334   4.255
22458SOL    HW172221   6.450   9.413   4.224
22458SOL    HW272222   6.313   9.358   4.257
22459SOL     OW72223   5.900   9.594   5.589
22459SOL    HW172224   5.936   9.616   5.503
22459SOL    HW272225   5.811   9.627   5.587
22460SOL     OW72226   6.867   9.689   4.673
22460SOL    HW172227   6.778   9.653   4.671
22460SOL    HW272228   6.915   9.631   4.732
22461SOL     OW72229   6.429   9.855   5.151
22461SOL    HW172230   6.381   9.875   5.232
22461SOL    HW272231   6.361   9.831   5.088
22462SOL     OW72232   6.999   9.800   5.421
22462SOL    HW172233   7.046   9.852   5.486
22462SOL    HW272234   7.048   9.718   5.417
22463SOL     OW72235   6.591   9.780   4.942
22463SOL    HW172236   6.536   9.798   5.018
22463SOL    HW272237   6.531   9.740   4.879
22464SOL     OW72238   6.688   9.983   4.160
22464SOL    HW172239   6.755   0.042   4.194
22464SOL    HW272240   6.608   0.010   4.206
22465SOL     OW72241   6.523   9.607   3.892
22465SOL    HW172242   6.522   9.695   3.855
22465SOL    HW272243   6.547   9.550   3.819
22466SOL     OW72244   7.181   9.920   5.610
22466SOL    HW172245   7.202   0.013   5.600
22466SOL    HW272246   7.243   9.875   5.552
22467SOL     OW72247   6.125   9.480   4.661
22467SOL    HW172248   6.124   9.489   4.757
22467SOL    HW272249   6.128   9.570   4.629
22468SOL     OW72250   7.092   0.014   4.459
22468SOL    HW172251   7.079   9.970   4.543
22468SOL    HW272252   7.134   0.097   4.482
22469SOL     OW72253   5.733   9.613   5.257
22469SOL    HW172254   5.734   9.577   5.168
22469SOL    HW272255   5.642   9.604   5.286
22470SOL     OW72256   7.111   9.545   5.431
22470SOL    HW172257   7.108   9.543   5.527
22470SOL    HW272258   7.064   9.466   5.404
22471SOL     OW72259   6.224   9.437   3.799
22471SOL    HW172260   6.278   9.483   3.735
22471SOL    HW272261   6.175   9.373   3.748
22472SOL     OW72262   6.386   9.618   5.450
22472SOL    HW172263   6.467   9.570   5.468
22472SOL    HW272264   6.339   9.618   5.533
22473SOL     OW72265   6.918   9.906   5.175
22473SOL    HW172266   6.945   9.872   5.261
22473SOL    HW272267   6.978   9.979   5.158
22474SOL     OW72268   6.494   9.799   4.613
22474SOL    HW172269   6.470   9.779   4.522
22474SOL    HW272270   6.541   9.721   4.643
22475SOL     OW72271   6.124   9.381   4.237
22475SOL    HW172272   6.056   9.397   4.303
22475SOL    HW272273   6.109   9.448   4.171
22476SOL     OW72274   5.867   9.357   3.935
22476SOL    HW172275   5.925   9.432   3.951
22476SOL    HW272276   5.913   9.282   3.972
22477SOL     OW72277   6.558   9.565   4.162
22477SOL    HW172278   6.539   9.575   4.069
22477SOL    HW272279   6.652   9.581   4.169
22478SOL     OW72280   6.660   9.908   5.296
22478SOL    HW172281   6.591   9.896   5.231
22478SOL    HW272282   6.737   9.935   5.244
22479SOL     OW72283   6.551   9.867   3.789
22479SOL    HW172284   6.557   9.953   3.749
22479SOL    HW272285   6.634   9.856   3.836
22480SOL     OW72286   6.107   9.467   4.936
22480SOL    HW172287   6.162   9.480   5.012
22480SOL    HW272288   6.025   9.512   4.957
22481SOL     OW72289   6.453   9.757   4.347
22481SOL    HW172290   6.456   9.841   4.301
22481SOL    HW272291   6.485   9.694   4.283
22482SOL     OW72292   6.596   9.340   4.474
22482SOL    HW172293   6.529   9.342   4.406
22482SOL    HW272294   6.562   9.279   4.540
22483SOL     OW72295   7.068   9.885   4.700
22483SOL    HW172296   6.991   9.832   4.718
22483SOL    HW272297   7.109   9.897   4.786
22484SOL     OW72298   6.073   9.528   4.008
22484SOL    HW172299   6.136   9.511   3.939
22484SOL    HW272300   6.087   9.620   4.031
22485SOL     OW72301   6.541   9.357   5.111
22485SOL    HW172302   6.558   9.352   5.017
22485SOL    HW272303   6.612   9.410   5.146
22486SOL     OW72304   6.839   9.690   5.024
22486SOL    HW172305   6.873   9.766   5.071
22486SOL    HW272306   6.756   9.720   4.986
22487SOL     OW72307   6.130   9.743   4.549
22487SOL    HW172308   6.147   9.797   4.472
22487SOL    HW272309   6.161   9.796   4.622
22488SOL     OW72310   7.253   0.043   4.210
22488SOL    HW172311   7.192   0.029   4.282
22488SOL    HW272312   7.226   9.981   4.143
22489SOL     OW72313   6.614   9.471   5.528
22489SOL    HW172314   6.671   9.543   5.503
22489SOL    HW272315   6.656   9.393   5.491
22490SOL     OW72316   6.137   9.386   5.424
22490SOL    HW172317   6.201   9.399   5.354
22490SOL    HW272318   6.069   9.451   5.407
22491SOL     OW72319   6.779   9.834   3.955
22491SOL    HW172320   6.796   9.754   4.005
22491SOL    HW272321   6.742   9.895   4.019
22492SOL     OW72322   6.259   9.925   4.715
22492SOL    HW172323   6.347   9.904   4.685
22492SOL    HW272324   6.254   0.021   4.709
22493SOL     OW72325   5.852   9.397   4.372
22493SOL    HW172326   5.817   9.486   4.385
22493SOL    HW272327   5.867   9.365   4.461
22494SOL     OW72328   7.135   9.660   4.116
22494SOL    HW172329   7.196   9.648   4.189
22494SOL    HW272330   7.178   9.723   4.058
22495SOL     OW72331   7.133   9.586   3.830
22495SOL    HW172332   7.050   9.634   3.835
22495SOL    HW272333   7.200   9.653   3.843
22496SOL     OW72334   5.948   0.092   4.668
22496SOL    HW172335   6.038   0.124   4.677
22496SOL    HW272336   5.944   0.059   4.578
22497SOL     OW72337   6.752   9.681   5.423
22497SOL    HW172338   6.697   9.756   5.400
22497SOL    HW272339   6.839   9.719   5.438
22498SOL     OW72340   6.754   9.504   5.213
22498SOL    HW172341   6.749   9.566   5.285
22498SOL    HW272342   6.792   9.554   5.140
22499SOL     OW72343   5.780   9.888   5.294
22499SOL    HW172344   5.771   9.792   5.295
22499SOL    HW272345   5.740   9.917   5.375
22500SOL     OW72346   6.265   9.907   3.983
22500SOL    HW172347   6.348   9.863   4.003
22500SOL    HW272348   6.231   9.934   4.069
22501SOL     OW72349   7.215   9.901   4.935
22501SOL    HW172350   7.207   9.867   5.024
22501SOL    HW272351   7.302   9.873   4.907
22502SOL     OW72352   6.256   9.782   4.956
22502SOL    HW172353   6.169   9.749   4.979
22502SOL    HW272354   6.243   9.827   4.873
22503SOL     OW72355   7.245   9.410   4.214
22503SOL    HW172356   7.296   9.479   4.256
22503SOL    HW272357   7.268   9.330   4.262
22504SOL     OW72358   7.416   9.461   4.706
22504SOL    HW172359   7.451   9.377   4.677
22504SOL    HW272360   7.329   9.466   4.666
22505SOL     OW72361   5.743   9.671   4.428
22505SOL    HW172362   5.724   9.751   4.380
22505SOL    HW272363   5.702   9.683   4.513
22506SOL     OW72364   6.624   9.553   4.668
22506SOL    HW172365   6.619   9.497   4.590
22506SOL    HW272366   6.619   9.491   4.742
22507SOL     OW72367   7.357   9.726   5.155
22507SOL    HW172368   7.435   9.781   5.146
22507SOL    HW272369   7.368   9.659   5.087
22508SOL     OW72370   6.303   9.466   5.221
22508SOL    HW172371   6.382   9.432   5.179
22508SOL    HW272372   6.335   9.536   5.278
22509SOL     OW72373   5.701   9.646   3.697
22509SOL    HW172374   5.617   9.661   3.653
22509SOL    HW272375   5.752   9.724   3.677
22510SOL     OW72376   5.606   9.448   4.005
22510SOL    HW172377   5.585   9.533   3.965
22510SOL    HW272378   5.697   9.431   3.981
22511SOL     OW72379   6.317   9.897   5.405
22511SOL    HW172380   6.384   9.956   5.440
22511SOL    HW272381   6.348   9.809   5.428
22512SOL     OW72382   6.848   9.658   4.168
22512SOL    HW172383   6.941   9.648   4.148
22512SOL    HW272384   6.846   9.706   4.250
22513SOL     OW72385   7.311   9.739   5.428
22513SOL    HW172386   7.327   9.749   5.334
22513SOL    HW272387   7.253   9.662   5.434
22514SOL     OW72388   6.791   0.265   3.734
22514SOL    HW172389   6.745   0.350   3.738
22514SOL    HW272390   6.871   0.279   3.784
22515SOL     OW72391   7.399   9.512   4.978
22515SOL    HW172392   7.493   9.502   4.993
22515SOL    HW272393   7.389   9.501   4.884
22516SOL     OW72394   6.011   9.664   4.301
22516SOL    HW172395   5.918   9.678   4.315
22516SOL    HW272396   6.049   9.664   4.389
22517SOL     OW72397   7.016   9.549   4.870
22517SOL    HW172398   7.066   9.493   4.931
22517SOL    HW272399   6.957   9.599   4.926
22518SOL     OW72400   6.616   9.329   4.839
22518SOL    HW172401   6.556   9.275   4.788
22518SOL    HW272402   6.701   9.286   4.829
22519SOL     OW72403   6.926   9.388   3.932
22519SOL    HW172404   6.895   9.396   3.842
22519SOL    HW272405   6.866   9.326   3.973
22520SOL     OW72406   6.904   9.791   4.408
22520SOL    HW172407   6.925   9.884   4.416
22520SOL    HW272408   6.882   9.763   4.497
22521SOL     OW72409   7.151   9.484   4.634
22521SOL    HW172410   7.102   9.515   4.710
22521SOL    HW272411   7.155   9.560   4.576
22522SOL     OW72412   5.821   9.591   6.594
22522SOL    HW172413   5.844   9.542   6.673
22522SOL    HW272414   5.727   9.574   6.583
22523SOL     OW72415   5.583   9.680   6.225
22523SOL    HW172416   5.501   9.704   6.268
22523SOL    HW272417   5.557   9.625   6.151
22524SOL     OW72418   7.279   9.876   5.876
22524SOL    HW172419   7.239   9.885   5.789
22524SOL    HW272420   7.355   9.934   5.873
22525SOL     OW72421   7.177   9.683   6.328
22525SOL    HW172422   7.177   9.728   6.244
22525SOL    HW272423   7.145   9.749   6.390
22526SOL     OW72424   7.145   9.448   7.090
22526SOL    HW172425   7.195   9.525   7.063
22526SOL    HW272426   7.096   9.476   7.167
22527SOL     OW72427   5.623   9.960   6.193
22527SOL    HW172428   5.622   9.864   6.197
22527SOL    HW272429   5.714   9.983   6.210
22528SOL     OW72430   6.409   9.316   6.110
22528SOL    HW172431   6.452   9.397   6.080
22528SOL    HW272432   6.316   9.336   6.105
22529SOL     OW72433   5.907   9.465   7.482
22529SOL    HW172434   5.951   9.530   7.427
22529SOL    HW272435   5.819   9.501   7.494
22530SOL     OW72436   6.850   9.704   6.494
22530SOL    HW172437   6.767   9.658   6.502
22530SOL    HW272438   6.909   9.659   6.555
22531SOL     OW72439   6.403   9.845   7.031
22531SOL    HW172440   6.370   9.869   7.117
22531SOL    HW272441   6.327   9.854   6.973
22532SOL     OW72442   6.577   9.805   6.810
22532SOL    HW172443   6.519   9.817   6.885
22532SOL    HW272444   6.518   9.795   6.736
22533SOL     OW72445   6.581   9.973   5.965
22533SOL    HW172446   6.579   0.062   6.001
22533SOL    HW272447   6.492   9.958   5.933
22534SOL     OW72448   6.492   9.601   5.745
22534SOL    HW172449   6.511   9.690   5.714
22534SOL    HW272450   6.539   9.544   5.684
22535SOL     OW72451   7.317   9.928   7.455
22535SOL    HW172452   7.379   9.995   7.427
22535SOL    HW272453   7.312   9.866   7.383
22536SOL     OW72454   6.142   9.461   6.545
22536SOL    HW172455   6.148   9.475   6.640
22536SOL    HW272456   6.141   9.549   6.508
22537SOL     OW72457   5.666   9.503   7.060
22537SOL    HW172458   5.713   9.573   7.106
22537SOL    HW272459   5.619   9.457   7.129
22538SOL     OW72460   6.976   9.438   6.047
22538SOL    HW172461   6.968   9.394   5.963
22538SOL    HW272462   7.047   9.501   6.034
22539SOL     OW72463   6.169   9.387   5.702
22539SOL    HW172464   6.261   9.363   5.711
22539SOL    HW272465   6.154   9.388   5.607
22540SOL     OW72466   6.975   9.846   7.011
22540SOL    HW172467   6.995   9.803   7.094
22540SOL    HW272468   7.018   9.931   7.017
22541SOL     OW72469   6.505   9.792   6.491
22541SOL    HW172470   6.492   9.786   6.396
22541SOL    HW272471   6.545   9.708   6.515
22542SOL     OW72472   6.138   9.362   6.061
22542SOL    HW172473   6.065   9.363   6.124
22542SOL    HW272474   6.128   9.443   6.012
22543SOL     OW72475   5.885   9.348   5.701
22543SOL    HW172476   5.890   9.433   5.657
22543SOL    HW272477   5.976   9.329   5.726
22544SOL     OW72478   6.523   9.556   6.018
22544SOL    HW172479   6.505   9.572   5.926
22544SOL    HW272480   6.614   9.582   6.029
22545SOL     OW72481   6.639   9.957   7.132
22545SOL    HW172482   6.560   9.910   7.103
22545SOL    HW272483   6.704   9.888   7.144
22546SOL     OW72484   6.566   9.845   5.640
22546SOL    HW172485   6.558   9.929   5.595
22546SOL    HW272486   6.648   9.851   5.688
22547SOL     OW72487   6.145   9.430   6.829
22547SOL    HW172488   6.142   9.342   6.867
22547SOL    HW272489   6.054   9.460   6.832
22548SOL     OW72490   6.513   9.781   6.219
22548SOL    HW172491   6.470   9.861   6.187
22548SOL    HW272492   6.497   9.716   6.151
22549SOL     OW72493   6.612   9.337   6.327
22549SOL    HW172494   6.542   9.338   6.261
22549SOL    HW272495   6.586   9.268   6.388
22550SOL     OW72496   7.056   9.889   6.472
22550SOL    HW172497   6.976   9.841   6.492
22550SOL    HW272498   7.104   9.893   6.555
22551SOL     OW72499   6.075   9.577   5.887
22551SOL    HW172500   6.113   9.520   5.821
22551SOL    HW272501   6.013   9.632   5.839
22552SOL     OW72502   6.821   9.676   6.856
22552SOL    HW172503   6.873   9.736   6.909
22552SOL    HW272504   6.744   9.728   6.830
22553SOL     OW72505   6.134   9.720   6.437
22553SOL    HW172506   6.133   9.709   6.342
22553SOL    HW272507   6.085   9.801   6.453
22554SOL     OW72508   7.202   9.905   6.147
22554SOL    HW172509   7.203   9.901   6.052
22554SOL    HW272510   7.292   9.926   6.171
22555SOL     OW72511   6.034   9.292   7.309
22555SOL    HW172512   5.987   9.354   7.365
22555SOL    HW272513   6.123   9.328   7.303
22556SOL     OW72514   6.768   9.827   5.836
22556SOL    HW172515   6.780   9.751   5.892
22556SOL    HW272516   6.706   9.883   5.883
22557SOL     OW72517   5.864   9.460   6.839
22557SOL    HW172518   5.807   9.490   6.910
22557SOL    HW272519   5.850   9.365   6.836
22558SOL     OW72520   6.334   9.958   6.641
22558SOL    HW172521   6.368   9.907   6.567
22558SOL    HW272522   6.274   0.021   6.602
22559SOL     OW72523   5.901   9.351   6.212
22559SOL    HW172524   5.874   9.442   6.225
22559SOL    HW272525   5.914   9.316   6.300
22560SOL     OW72526   7.171   9.628   5.960
22560SOL    HW172527   7.243   9.583   6.003
22560SOL    HW272528   7.206   9.714   5.936
22561SOL     OW72529   7.087   9.544   5.701
22561SOL    HW172530   7.031   9.473   5.732
22561SOL    HW272531   7.119   9.586   5.781
22562SOL     OW72532   5.950   9.982   6.515
22562SOL    HW172533   6.009   0.055   6.533
22562SOL    HW272534   5.862   0.019   6.523
22563SOL     OW72535   5.973   9.791   6.718
22563SOL    HW172536   5.925   9.722   6.673
22563SOL    HW272537   5.971   9.865   6.658
22564SOL     OW72538   6.767   9.641   7.248
22564SOL    HW172539   6.731   9.685   7.325
22564SOL    HW272540   6.842   9.592   7.281
22565SOL     OW72541   6.640   9.541   7.024
22565SOL    HW172542   6.677   9.571   7.107
22565SOL    HW272543   6.705   9.567   6.958
22566SOL     OW72544   5.570   9.855   6.643
22566SOL    HW172545   5.627   9.908   6.587
22566SOL    HW272546   5.624   9.836   6.720
22567SOL     OW72547   5.759   9.706   7.245
22567SOL    HW172548   5.850   9.680   7.261
22567SOL    HW272549   5.765   9.792   7.204
22568SOL     OW72550   6.314   9.934   5.896
22568SOL    HW172551   6.297   9.842   5.878
22568SOL    HW272552   6.251   9.958   5.964
22569SOL     OW72553   7.169   9.826   6.724
22569SOL    HW172554   7.143   9.853   6.812
22569SOL    HW272555   7.264   9.826   6.725
22570SOL     OW72556   6.236   9.773   6.822
22570SOL    HW172557   6.143   9.764   6.802
22570SOL    HW272558   6.268   9.837   6.758
22571SOL     OW72559   7.371   9.480   6.076
22571SOL    HW172560   7.427   9.468   6.000
22571SOL    HW272561   7.355   9.391   6.108
22572SOL     OW72562   7.407   9.439   6.549
22572SOL    HW172563   7.443   9.354   6.524
22572SOL    HW272564   7.318   9.439   6.513
22573SOL     OW72565   5.840   9.605   6.300
22573SOL    HW172566   5.753   9.640   6.280
22573SOL    HW272567   5.847   9.613   6.395
22574SOL     OW72568   6.626   9.545   6.517
22574SOL    HW172569   6.626   9.489   6.439
22574SOL    HW272570   6.605   9.485   6.588
22575SOL     OW72571   7.325   9.665   7.009
22575SOL    HW172572   7.394   9.731   6.998
22575SOL    HW272573   7.342   9.600   6.941
22576SOL     OW72574   5.624   9.647   5.606
22576SOL    HW172575   5.573   9.649   5.526
22576SOL    HW272576   5.579   9.708   5.665
22577SOL     OW72577   5.647   9.451   5.806
22577SOL    HW172578   5.628   9.519   5.742
22577SOL    HW272579   5.734   9.419   5.783
22578SOL     OW72580   6.304   9.904   7.276
22578SOL    HW172581   6.238   9.965   7.308
22578SOL    HW272582   6.277   9.819   7.310
22579SOL     OW72583   6.786   9.643   6.049
22579SOL    HW172584   6.849   9.571   6.054
22579SOL    HW272585   6.817   9.706   6.114
22580SOL     OW72586   7.296   9.716   7.277
22580SOL    HW172587   7.316   9.703   7.184
22580SOL    HW272588   7.208   9.681   7.287
22581SOL     OW72589   6.685   0.322   5.686
22581SOL    HW172590   6.700   0.331   5.592
22581SOL    HW272591   6.749   0.380   5.727
22582SOL     OW72592   7.407   9.485   6.822
22582SOL    HW172593   7.503   9.488   6.830
22582SOL    HW272594   7.391   9.471   6.729
22583SOL     OW72595   6.079   9.672   6.167
22583SOL    HW172596   6.073   9.658   6.072
22583SOL    HW272597   5.990   9.657   6.199
22584SOL     OW72598   5.725   9.842   6.876
22584SOL    HW172599   5.726   9.887   6.960
22584SOL    HW272600   5.818   9.837   6.850
22585SOL     OW72601   7.021   9.593   6.680
22585SOL    HW172602   7.085   9.661   6.701
22585SOL    HW272603   6.956   9.598   6.749
22586SOL     OW72604   6.582   9.334   6.690
22586SOL    HW172605   6.661   9.290   6.659
22586SOL    HW272606   6.576   9.311   6.782
22587SOL     OW72607   6.952   9.324   5.795
22587SOL    HW172608   6.998   9.261   5.740
22587SOL    HW272609   6.869   9.282   5.817
22588SOL     OW72610   6.837   9.850   6.257
22588SOL    HW172611   6.745   9.871   6.241
22588SOL    HW272612   6.836   9.795   6.336
22589SOL     OW72613   7.137   9.446   6.475
22589SOL    HW172614   7.095   9.490   6.549
22589SOL    HW272615   7.145   9.513   6.408
22590SOL     OW72616   5.816   9.586   8.457
22590SOL    HW172617   5.852   9.542   8.534
22590SOL    HW272618   5.727   9.554   8.449
22591SOL     OW72619   5.594   9.709   8.175
22591SOL    HW172620   5.556   9.746   8.255
22591SOL    HW272621   5.520   9.668   8.130
22592SOL     OW72622   7.323   9.939   7.733
22592SOL    HW172623   7.331   9.956   7.639
22592SOL    HW272624   7.283   9.853   7.739
22593SOL     OW72625   6.040   9.699   9.110
22593SOL    HW172626   6.112   9.747   9.067
22593SOL    HW272627   5.999   9.649   9.039
22594SOL     OW72628   7.164   9.730   8.235
22594SOL    HW172629   7.083   9.747   8.187
22594SOL    HW272630   7.167   9.799   8.302
22595SOL     OW72631   7.151   9.467   8.892
22595SOL    HW172632   7.220   9.532   8.880
22595SOL    HW272633   7.131   9.471   8.985
22596SOL     OW72634   5.610   9.953   8.034
22596SOL    HW172635   5.619   9.875   8.089
22596SOL    HW272636   5.698   9.988   8.027
22597SOL     OW72637   6.440   9.365   7.959
22597SOL    HW172638   6.466   9.453   7.932
22597SOL    HW272639   6.344   9.366   7.955
22598SOL     OW72640   5.928   9.560   9.324
22598SOL    HW172641   5.973   9.614   9.260
22598SOL    HW272642   5.837   9.589   9.321
22599SOL     OW72643   6.874   9.682   8.404
22599SOL    HW172644   6.792   9.631   8.403
22599SOL    HW272645   6.928   9.639   8.471
22600SOL     OW72646   6.238   9.844   8.977
22600SOL    HW172647   6.331   9.862   8.992
22600SOL    HW272648   6.232   9.826   8.883
22601SOL     OW72649   6.618   9.834   8.765
22601SOL    HW172650   6.628   9.812   8.858
22601SOL    HW272651   6.540   9.785   8.738
22602SOL     OW72652   6.708   9.988   7.902
22602SOL    HW172653   6.692   9.963   7.993
22602SOL    HW272654   6.641   0.055   7.884
22603SOL     OW72655   6.449   9.671   7.625
22603SOL    HW172656   6.510   9.688   7.553
22603SOL    HW272657   6.389   9.605   7.590
22604SOL     OW72658   7.277   9.933   9.260
22604SOL    HW172659   7.183   9.946   9.252
22604SOL    HW272660   7.294   9.850   9.214
22605SOL     OW72661   6.140   9.497   8.340
22605SOL    HW172662   6.127   9.520   8.432
22605SOL    HW272663   6.143   9.581   8.294
22606SOL     OW72664   7.015   0.083   8.179
22606SOL    HW172665   6.995   0.029   8.254
22606SOL    HW272666   7.018   0.172   8.214
22607SOL     OW72667   5.865   9.564   8.943
22607SOL    HW172668   5.813   9.642   8.924
22607SOL    HW272669   5.801   9.500   8.975
22608SOL     OW72670   7.120   9.463   9.175
22608SOL    HW172671   7.102   9.502   9.261
22608SOL    HW272672   7.116   9.369   9.190
22609SOL     OW72673   6.259   9.495   7.526
22609SOL    HW172674   6.284   9.423   7.468
22609SOL    HW272675   6.232   9.565   7.467
22610SOL     OW72676   6.332   9.527   9.187
22610SOL    HW172677   6.426   9.514   9.195
22610SOL    HW272678   6.321   9.622   9.196
22611SOL     OW72679   6.530   9.785   8.337
22611SOL    HW172680   6.485   9.767   8.254
22611SOL    HW272681   6.567   9.701   8.363
22612SOL     OW72682   6.168   9.388   7.921
22612SOL    HW172683   6.097   9.383   7.986
22612SOL    HW272684   6.154   9.471   7.876
22613SOL     OW72685   5.914   9.212   7.598
22613SOL    HW172686   5.917   9.300   7.562
22613SOL    HW272687   5.990   9.206   7.656
22614SOL     OW72688   6.521   9.615   7.883
22614SOL    HW172689   6.493   9.637   7.794
22614SOL    HW272690   6.617   9.609   7.877
22615SOL     OW72691   6.649   9.787   7.460
22615SOL    HW172692   6.604   9.871   7.449
22615SOL    HW272693   6.699   9.798   7.541
22616SOL     OW72694   5.743   9.808   8.886
22616SOL    HW172695   5.815   9.846   8.835
22616SOL    HW272696   5.667   9.813   8.828
22617SOL     OW72697   6.137   9.507   8.617
22617SOL    HW172698   6.195   9.432   8.605
22617SOL    HW272699   6.055   9.468   8.648
22618SOL     OW72700   6.419   9.768   8.092
22618SOL    HW172701   6.403   9.850   8.045
22618SOL    HW272702   6.446   9.707   8.024
22619SOL     OW72703   6.585   9.337   8.190
22619SOL    HW172704   6.530   9.352   8.112
22619SOL    HW272705   6.537   9.272   8.240
22620SOL     OW72706   6.966   9.946   8.421
22620SOL    HW172707   6.921   9.862   8.417
22620SOL    HW272708   7.047   9.928   8.467
22621SOL     OW72709   6.126   9.605   7.755
22621SOL    HW172710   6.160   9.555   7.680
22621SOL    HW272711   6.138   9.696   7.729
22622SOL     OW72712   6.529   9.372   8.828
22622SOL    HW172713   6.547   9.359   8.735
22622SOL    HW272714   6.601   9.426   8.860
22623SOL     OW72715   6.883   9.740   8.770
22623SOL    HW172716   6.917   9.800   8.837
22623SOL    HW272717   6.796   9.775   8.750
22624SOL     OW72718   6.143   9.770   8.275
22624SOL    HW172719   6.124   9.758   8.182
22624SOL    HW272720   6.230   9.810   8.277
22625SOL     OW72721   7.147   9.922   7.980
22625SOL    HW172722   7.111   9.954   8.063
22625SOL    HW272723   7.113   9.982   7.914
22626SOL     OW72724   6.605   9.501   9.201
22626SOL    HW172725   6.636   9.557   9.129
22626SOL    HW272726   6.648   9.417   9.185
22627SOL     OW72727   6.083   9.317   9.172
22627SOL    HW172728   6.018   9.277   9.114
22627SOL    HW272729   6.125   9.384   9.118
22628SOL     OW72730   6.783   9.818   7.701
22628SOL    HW172731   6.793   9.734   7.746
22628SOL    HW272732   6.753   9.878   7.770
22629SOL     OW72733   5.872   9.436   8.698
22629SOL    HW172734   5.900   9.473   8.782
22629SOL    HW272735   5.777   9.449   8.697
22630SOL     OW72736   6.336   9.894   8.503
22630SOL    HW172737   6.409   9.861   8.451
22630SOL    HW272738   6.336   9.988   8.487
22631SOL     OW72739   5.940   9.346   8.072
22631SOL    HW172740   5.908   9.423   8.118
22631SOL    HW272741   5.937   9.276   8.137
22632SOL     OW72742   7.203   9.699   7.807
22632SOL    HW172743   7.245   9.630   7.859
22632SOL    HW272744   7.175   9.764   7.872
22633SOL     OW72745   5.905   0.076   8.339
22633SOL    HW172746   5.989   0.121   8.348
22633SOL    HW272747   5.917   9.992   8.382
22634SOL     OW72748   5.945   9.830   8.456
22634SOL    HW172749   5.894   9.749   8.457
22634SOL    HW272750   6.020   9.811   8.400
22635SOL     OW72751   6.753   9.519   8.917
22635SOL    HW172752   6.718   9.602   8.950
22635SOL    HW272753   6.823   9.544   8.857
22636SOL     OW72754   5.667   9.873   8.605
22636SOL    HW172755   5.674   9.848   8.513
22636SOL    HW272756   5.599   9.815   8.640
22637SOL     OW72757   5.793   9.825   9.160
22637SOL    HW172758   5.887   9.808   9.157
22637SOL    HW272759   5.768   9.832   9.068
22638SOL     OW72760   6.354   9.924   7.687
22638SOL    HW172761   6.386   9.836   7.670
22638SOL    HW272762   6.367   9.937   7.781
22639SOL     OW72763   7.193   9.892   8.560
22639SOL    HW172764   7.169   9.940   8.638
22639SOL    HW272765   7.288   9.878   8.569
22640SOL     OW72766   6.201   9.769   8.707
22640SOL    HW172767   6.184   9.680   8.676
22640SOL    HW272768   6.245   9.812   8.634
22641SOL     OW72769   7.331   9.468   7.931
22641SOL    HW172770   7.361   9.535   7.992
22641SOL    HW272771   7.312   9.392   7.985
22642SOL     OW72772   7.436   9.473   8.422
22642SOL    HW172773   7.464   9.384   8.398
22642SOL    HW272774   7.346   9.478   8.392
22643SOL     OW72775   5.844   9.586   8.176
22643SOL    HW172776   5.760   9.631   8.165
22643SOL    HW272777   5.859   9.585   8.270
22644SOL     OW72778   6.641   9.532   8.385
22644SOL    HW172779   6.630   9.475   8.309
22644SOL    HW272780   6.624   9.475   8.460
22645SOL     OW72781   7.356   9.687   8.890
22645SOL    HW172782   7.385   9.778   8.877
22645SOL    HW272783   7.372   9.645   8.806
22646SOL     OW72784   6.287   9.374   8.963
22646SOL    HW172785   6.364   9.381   8.906
22646SOL    HW272786   6.303   9.436   9.033
22647SOL     OW72787   5.650   9.570   7.467
22647SOL    HW172788   5.603   9.514   7.406
22647SOL    HW272789   5.692   9.636   7.411
22648SOL     OW72790   5.612   9.481   7.737
22648SOL    HW172791   5.604   9.517   7.648
22648SOL    HW272792   5.686   9.527   7.776
22649SOL     OW72793   6.346   9.796   9.260
22649SOL    HW172794   6.271   9.855   9.258
22649SOL    HW272795   6.407   9.833   9.196
22650SOL     OW72796   6.794   9.582   7.858
22650SOL    HW172797   6.815   9.494   7.827
22650SOL    HW272798   6.850   9.594   7.935
22651SOL     OW72799   7.309   9.670   9.158
22651SOL    HW172800   7.324   9.682   9.064
22651SOL    HW272801   7.248   9.596   9.163
22652SOL     OW72802   6.641   0.177   7.589
22652SOL    HW172803   6.628   0.182   7.494
22652SOL    HW272804   6.732   0.151   7.600
22653SOL     OW72805   7.394   9.504   8.691
22653SOL    HW172806   7.442   9.425   8.716
22653SOL    HW272807   7.406   9.511   8.597
22654SOL     OW72808   6.061   9.691   8.027
22654SOL    HW172809   6.064   9.662   7.936
22654SOL    HW272810   5.981   9.652   8.062
22655SOL     OW72811   5.955   9.898   8.729
22655SOL    HW172812   6.042   9.860   8.737
22655SOL    HW272813   5.929   9.882   8.638
22656SOL     OW72814   7.034   9.573   8.612
22656SOL    HW172815   7.090   9.527   8.674
22656SOL    HW272816   6.987   9.637   8.664
22657SOL     OW72817   6.596   9.319   8.562
22657SOL    HW172818   6.515   9.278   8.530
22657SOL    HW272819   6.666   9.261   8.531
22658SOL     OW72820   6.900   9.762   8.141
22658SOL    HW172821   6.835   9.832   8.134
22658SOL    HW272822   6.884   9.724   8.228
22659SOL     OW72823   7.163   9.491   8.377
22659SOL    HW172824   7.122   9.524   8.457
22659SOL    HW272825   7.162   9.566   8.317
22660SOL     OW72826   7.315   9.874   9.527
22660SOL    HW172827   7.306   9.913   9.440
22660SOL    HW272828   7.390   9.814   9.518
22661SOL     OW72829   5.722   9.844   9.936
22661SOL    HW172830   5.653   9.860  -0.000
22661SOL    HW272831   5.772   9.925   9.933
22662SOL     OW72832   6.512   9.259   9.815
22662SOL    HW172833   6.584   9.317   9.789
22662SOL    HW272834   6.496   9.281   9.907
22663SOL     OW72835   6.692   9.982   9.720
22663SOL    HW172836   6.711   9.948   9.807
22663SOL    HW272837   6.631   0.054   9.734
22664SOL     OW72838   6.455   9.629   9.453
22664SOL    HW172839   6.416   9.691   9.391
22664SOL    HW272840   6.524   9.585   9.403
22665SOL     OW72841   6.214   9.458   9.433
22665SOL    HW172842   6.290   9.470   9.490
22665SOL    HW272843   6.245   9.479   9.345
22666SOL     OW72844   6.061   9.432   9.812
22666SOL    HW172845   5.976   9.469   9.836
22666SOL    HW272846   6.105   9.502   9.765
22667SOL     OW72847   6.522   9.626   9.725
22667SOL    HW172848   6.486   9.606   9.639
22667SOL    HW272849   6.578   9.551   9.746
22668SOL     OW72850   6.468   9.772   9.956
22668SOL    HW172851   6.425   9.848   9.918
22668SOL    HW272852   6.474   9.709   9.883
22669SOL     OW72853   6.118   9.645   9.642
22669SOL    HW172854   6.125   9.603   9.556
22669SOL    HW272855   6.174   9.722   9.635
22670SOL     OW72856   7.149   9.886   9.745
22670SOL    HW172857   7.148   9.972   9.785
22670SOL    HW272858   7.205   9.895   9.668
22671SOL     OW72859   6.727   9.756   9.574
22671SOL    HW172860   6.675   9.692   9.622
22671SOL    HW272861   6.713   9.838   9.620
22672SOL     OW72862   5.783   9.367   9.959
22672SOL    HW172863   5.750   9.455   9.978
22672SOL    HW272864   5.829   9.341   0.039
22673SOL     OW72865   7.195   9.620   9.669
22673SOL    HW172866   7.249   9.571   9.732
22673SOL    HW272867   7.207   9.711   9.694
22674SOL     OW72868   7.064   9.564   9.429
22674SOL    HW172869   7.038   9.474   9.445
22674SOL    HW272870   7.120   9.587   9.503
22675SOL     OW72871   5.929   9.779   0.269
22675SOL    HW172872   5.872   9.716   0.225
22675SOL    HW272873   6.012   9.733   0.280
22676SOL     OW72874   6.308   9.845   9.598
22676SOL    HW172875   6.381   9.789   9.572
22676SOL    HW272876   6.339   9.890   9.676
22677SOL     OW72877   7.313   9.478   9.887
22677SOL    HW172878   7.302   9.385   9.868
22677SOL    HW272879   7.244   9.498   9.950
22678SOL     OW72880   5.652   9.641   9.303
22678SOL    HW172881   5.579   9.631   9.241
22678SOL    HW272882   5.697   9.719   9.273
22679SOL     OW72883   5.650   9.469   9.525
22679SOL    HW172884   5.636   9.532   9.454
22679SOL    HW272885   5.683   9.523   9.597
22680SOL     OW72886   6.679   0.267   9.316
22680SOL    HW172887   6.703   0.338   9.256
22680SOL    HW272888   6.764   0.231   9.344
22681SOL     OW72889   5.879   9.645   9.818
22681SOL    HW172890   5.951   9.674   9.762
22681SOL    HW272891   5.836   9.726   9.845
22682SOL     OW72892   6.989   9.305   9.447
22682SOL    HW172893   7.041   9.224   9.447
22682SOL    HW272894   6.931   9.296   9.523
22683SOL     OW72895   7.618   0.575   0.123
22683SOL    HW172896   7.632   0.669   0.136
22683SOL    HW272897   7.705   0.537   0.133
22684SOL     OW72898   7.620   0.323   1.063
22684SOL    HW172899   7.645   0.275   1.142
22684SOL    HW272900   7.626   0.258   0.993
22685SOL     OW72901   7.424   0.453   0.634
22685SOL    HW172902   7.355   0.448   0.700
22685SOL    HW272903   7.488   0.387   0.661
22686SOL     OW72904   8.025   1.317   1.216
22686SOL    HW172905   7.948   1.325   1.160
22686SOL    HW272906   8.047   1.406   1.240
22687SOL     OW72907   8.893   1.587   0.651
22687SOL    HW172908   8.910   1.535   0.730
22687SOL    HW272909   8.828   1.537   0.603
22688SOL     OW72910   8.562   0.665   0.804
22688SOL    HW172911   8.532   0.675   0.713
22688SOL    HW272912   8.571   0.570   0.815
22689SOL     OW72913   9.236   0.607   0.201
22689SOL    HW172914   9.161   0.662   0.175
22689SOL    HW272915   9.196   0.527   0.236
22690SOL     OW72916   8.168   1.132   1.063
22690SOL    HW172917   8.110   1.167   1.130
22690SOL    HW272918   8.215   1.209   1.030
22691SOL     OW72919   8.337   0.798   1.824
22691SOL    HW172920   8.385   0.732   1.874
22691SOL    HW272921   8.332   0.874   1.883
22692SOL     OW72922   8.160   0.986   0.631
22692SOL    HW172923   8.221   0.977   0.704
22692SOL    HW272924   8.088   1.038   0.667
22693SOL     OW72925   8.169   1.169   1.851
22693SOL    HW172926   8.228   1.225   1.900
22693SOL    HW272927   8.102   1.228   1.817
22694SOL     OW72928   7.812   1.413   1.062
22694SOL    HW172929   7.731   1.389   1.018
22694SOL    HW272930   7.858   1.470   1.001
22695SOL     OW72931   8.864   1.523   1.375
22695SOL    HW172932   8.925   1.596   1.387
22695SOL    HW272933   8.805   1.529   1.450
22696SOL     OW72934   7.858   0.382   1.479
22696SOL    HW172935   7.944   0.341   1.491
22696SOL    HW272936   7.795   0.314   1.499
22697SOL     OW72937   9.064   0.480   0.759
22697SOL    HW172938   9.008   0.525   0.695
22697SOL    HW272939   9.045   0.524   0.842
22698SOL     OW72940   7.656   1.725   0.474
22698SOL    HW172941   7.683   1.799   0.529
22698SOL    HW272942   7.736   1.697   0.430
22699SOL     OW72943   8.496   1.378   1.721
22699SOL    HW172944   8.494   1.363   1.815
22699SOL    HW272945   8.474   1.294   1.682
22700SOL     OW72946   7.535   1.502   0.568
22700SOL    HW172947   7.577   1.582   0.537
22700SOL    HW272948   7.524   1.515   0.662
22701SOL     OW72949   7.693   1.088   0.902
22701SOL    HW172950   7.662   0.998   0.894
22701SOL    HW272951   7.767   1.082   0.962
22702SOL     OW72952   7.996   1.840   1.378
22702SOL    HW172953   7.930   1.806   1.439
22702SOL    HW272954   8.046   1.903   1.430
22703SOL     OW72955   8.040   0.974   0.135
22703SOL    HW172956   7.997   1.057   0.113
22703SOL    HW272957   8.102   0.997   0.204
22704SOL     OW72958   8.970   0.107   1.430
22704SOL    HW172959   9.038   0.161   1.389
22704SOL    HW272960   8.948   0.153   1.511
22705SOL     OW72961   7.551   0.679   0.537
22705SOL    HW172962   7.514   0.595   0.563
22705SOL    HW272963   7.539   0.736   0.613
22706SOL     OW72964   7.432   1.540   0.094
22706SOL    HW172965   7.343   1.509   0.079
22706SOL    HW272966   7.423   1.603   0.166
22707SOL     OW72967   9.149   0.934   0.680
22707SOL    HW172968   9.226   0.902   0.634
22707SOL    HW272969   9.095   0.975   0.612
22708SOL     OW72970   7.569   0.680   1.620
22708SOL    HW172971   7.660   0.708   1.611
22708SOL    HW272972   7.517   0.755   1.591
22709SOL     OW72973   8.087   1.366   0.777
22709SOL    HW172974   8.037   1.284   0.769
22709SOL    HW272975   8.093   1.398   0.687
22710SOL     OW72976   8.715   1.207   1.414
22710SOL    HW172977   8.740   1.132   1.360
22710SOL    HW272978   8.774   1.204   1.489
22711SOL     OW72979   7.634   0.968   1.286
22711SOL    HW172980   7.722   0.932   1.287
22711SOL    HW272981   7.589   0.919   1.217
22712SOL     OW72982   8.634   1.851   1.663
22712SOL    HW172983   8.630   1.898   1.580
22712SOL    HW272984   8.650   1.760   1.637
22713SOL     OW72985   7.709   0.315   1.895
22713SOL    HW172986   7.780   0.351   1.948
22713SOL    HW272987   7.709   0.221   1.916
22714SOL     OW72988   8.911   1.459   0.907
22714SOL    HW172989   8.846   1.463   0.977
22714SOL    HW272990   8.918   1.366   0.886
22715SOL     OW72991   9.206   1.728   0.488
22715SOL    HW172992   9.169   1.707   0.402
22715SOL    HW272993   9.141   1.696   0.551
22716SOL     OW72994   7.992   0.726   0.243
22716SOL    HW172995   7.998   0.816   0.210
22716SOL    HW272996   7.941   0.733   0.323
22717SOL     OW72997   8.755   0.413   0.901
22717SOL    HW172998   8.676   0.386   0.855
22717SOL    HW272999   8.770   0.343   0.965
22718SOL     OW73000   9.107   1.639   0.245
22718SOL    HW173001   9.152   1.559   0.217
22718SOL    HW273002   9.051   1.662   0.171
22719SOL     OW73003   8.802   0.489   1.706
22719SOL    HW173004   8.718   0.531   1.688
22719SOL    HW273005   8.842   0.542   1.775
22720SOL     OW73006   7.486   0.826   0.761
22720SOL    HW173007   7.560   0.807   0.818
22720SOL    HW273008   7.430   0.884   0.812
22721SOL     OW73009   7.550   1.865   1.603
22721SOL    HW173010   7.543   1.855   1.698
22721SOL    HW273011   7.493   1.798   1.567
22722SOL     OW73012   8.382   0.331   0.131
22722SOL    HW173013   8.371   0.369   0.218
22722SOL    HW273014   8.345   0.243   0.137
22723SOL     OW73015   9.084   0.520   1.838
22723SOL    HW173016   9.054   0.598   1.791
22723SOL    HW273017   9.127   0.467   1.771
22724SOL     OW73018   7.900   0.271   0.896
22724SOL    HW173019   7.928   0.243   0.983
22724SOL    HW273020   7.958   0.344   0.874
22725SOL     OW73021   7.794   1.809   0.913
22725SOL    HW173022   7.848   1.731   0.897
22725SOL    HW273023   7.857   1.881   0.917
22726SOL     OW73024   9.267   1.071   0.892
22726SOL    HW173025   9.215   1.034   0.821
22726SOL    HW273026   9.208   1.073   0.967
22727SOL     OW73027   8.652   1.569   1.577
22727SOL    HW173028   8.611   1.495   1.622
22727SOL    HW273029   8.586   1.597   1.514
22728SOL     OW73030   8.941   0.746   0.699
22728SOL    HW173031   8.928   0.716   0.789
22728SOL    HW273032   9.015   0.806   0.703
22729SOL     OW73033   7.937   1.305   1.753
22729SOL    HW173034   7.912   1.315   1.661
22729SOL    HW273035   7.859   1.269   1.795
22730SOL     OW73036   8.583   1.802   0.201
22730SOL    HW173037   8.570   1.772   0.291
22730SOL    HW273038   8.579   1.722   0.148
22731SOL     OW73039   7.666   0.174   1.522
22731SOL    HW173040   7.577   0.204   1.543
22731SOL    HW273041   7.676   0.094   1.573
22732SOL     OW73042   8.975   1.349   0.206
22732SOL    HW173043   8.927   1.431   0.217
22732SOL    HW273044   8.978   1.311   0.293
22733SOL     OW73045   7.889   1.660   0.339
22733SOL    HW173046   7.934   1.730   0.386
22733SOL    HW273047   7.958   1.617   0.289
22734SOL     OW73048   8.866   0.190   0.428
22734SOL    HW173049   8.828   0.122   0.371
22734SOL    HW273050   8.887   0.144   0.509
22735SOL     OW73051   7.716   1.777   1.188
22735SOL    HW173052   7.763   1.708   1.236
22735SOL    HW273053   7.750   1.771   1.099
22736SOL     OW73054   7.821   0.681   0.455
22736SOL    HW173055   7.835   0.587   0.441
22736SOL    HW273056   7.729   0.688   0.482
22737SOL     OW73057   8.923   0.239   1.674
22737SOL    HW173058   8.933   0.230   1.769
22737SOL    HW273059   8.875   0.321   1.663
22738SOL     OW73060   8.212   0.216   1.770
22738SOL    HW173061   8.301   0.185   1.756
22738SOL    HW273062   8.220   0.312   1.773
22739SOL     OW73063   8.329   1.520   1.218
22739SOL    HW173064   8.308   1.481   1.133
22739SOL    HW273065   8.381   1.454   1.263
22740SOL     OW73066   8.825   0.565   1.422
22740SOL    HW173067   8.840   0.550   1.515
22740SOL    HW273068   8.842   0.659   1.410
22741SOL     OW73069   8.276   1.375   0.981
22741SOL    HW173070   8.360   1.371   0.934
22741SOL    HW273071   8.210   1.383   0.912
22742SOL     OW73072   7.949   9.980   0.490
22742SOL    HW173073   7.875   0.012   0.541
22742SOL    HW273074   8.018   9.965   0.555
22743SOL     OW73075   7.747   0.116   0.197
22743SOL    HW173076   7.826   0.160   0.228
22743SOL    HW273077   7.761   0.024   0.221
22744SOL     OW73078   7.940   1.133   0.727
22744SOL    HW173079   7.870   1.109   0.787
22744SOL    HW273080   7.906   1.109   0.640
22745SOL     OW73081   8.769   1.813   0.556
22745SOL    HW173082   8.690   1.772   0.521
22745SOL    HW273083   8.815   1.742   0.600
22746SOL     OW73084   8.481   0.690   0.042
22746SOL    HW173085   8.389   0.680   0.066
22746SOL    HW273086   8.529   0.651   0.115
22747SOL     OW73087   7.512   0.553   1.372
22747SOL    HW173088   7.605   0.555   1.348
22747SOL    HW273089   7.509   0.596   1.458
22748SOL     OW73090   7.943   0.204   1.154
22748SOL    HW173091   8.013   0.211   1.220
22748SOL    HW273092   7.866   0.175   1.203
22749SOL     OW73093   8.503   9.973   0.709
22749SOL    HW173094   8.510   0.066   0.688
22749SOL    HW273095   8.414   9.949   0.683
22750SOL     OW73096   8.928   1.185   0.852
22750SOL    HW173097   8.874   1.119   0.809
22750SOL    HW273098   8.991   1.211   0.784
22751SOL     OW73099   8.912   0.633   0.951
22751SOL    HW173100   8.852   0.558   0.945
22751SOL    HW273101   8.957   0.621   1.035
22752SOL     OW73102   9.294   0.828   0.387
22752SOL    HW173103   9.356   0.780   0.441
22752SOL    HW273104   9.238   0.761   0.348
22753SOL     OW73105   9.096   1.275   0.653
22753SOL    HW173106   9.185   1.243   0.635
22753SOL    HW273107   9.046   1.251   0.576
22754SOL     OW73108   8.853   0.541   0.111
22754SOL    HW173109   8.840   0.628   0.149
22754SOL    HW273110   8.947   0.526   0.116
22755SOL     OW73111   8.001   0.209   0.282
22755SOL    HW173112   8.040   0.144   0.340
22755SOL    HW273113   8.072   0.238   0.226
22756SOL     OW73114   9.154   1.242   1.524
22756SOL    HW173115   9.220   1.173   1.531
22756SOL    HW273116   9.197   1.320   1.561
22757SOL     OW73117   8.476   1.328   1.351
22757SOL    HW173118   8.401   1.286   1.394
22757SOL    HW273119   8.552   1.293   1.397
22758SOL     OW73120   9.052   1.614   1.654
22758SOL    HW173121   9.047   1.659   1.570
22758SOL    HW273122   9.132   1.561   1.648
22759SOL     OW73123   8.580   1.231   1.120
22759SOL    HW173124   8.546   1.266   1.202
22759SOL    HW273125   8.520   1.160   1.097
22760SOL     OW73126   9.070   1.102   1.086
22760SOL    HW173127   9.058   1.168   1.154
22760SOL    HW273128   9.007   1.126   1.018
22761SOL     OW73129   8.320   0.105   1.411
22761SOL    HW173130   8.335   0.092   1.317
22761SOL    HW273131   8.389   0.164   1.439
22762SOL     OW73132   8.394   1.112   1.690
22762SOL    HW173133   8.302   1.124   1.715
22762SOL    HW273134   8.437   1.083   1.770
22763SOL     OW73135   8.214   1.029   0.351
22763SOL    HW173136   8.187   1.016   0.442
22763SOL    HW273137   8.289   0.971   0.340
22764SOL     OW73138   7.873   0.834   1.270
22764SOL    HW173139   7.951   0.829   1.326
22764SOL    HW273140   7.836   0.746   1.273
22765SOL     OW73141   8.690   0.385   1.263
22765SOL    HW173142   8.736   0.450   1.315
22765SOL    HW273143   8.614   0.431   1.228
22766SOL     OW73144   7.540   1.584   1.387
22766SOL    HW173145   7.508   1.644   1.320
22766SOL    HW273146   7.633   1.576   1.370
22767SOL     OW73147   7.830   1.064   0.487
22767SOL    HW173148   7.782   1.147   0.478
22767SOL    HW273149   7.812   1.017   0.405
22768SOL     OW73150   7.991   0.532   0.852
22768SOL    HW173151   8.005   0.598   0.784
22768SOL    HW273152   8.050   0.557   0.923
22769SOL     OW73153   8.746   1.464   1.131
22769SOL    HW173154   8.788   1.481   1.215
22769SOL    HW273155   8.703   1.379   1.142
22770SOL     OW73156   8.916   0.619   0.449
22770SOL    HW173157   8.920   0.671   0.529
22770SOL    HW273158   8.895   0.682   0.380
22771SOL     OW73159   7.798   1.528   1.309
22771SOL    HW173160   7.795   1.480   1.226
22771SOL    HW273161   7.891   1.550   1.320
22772SOL     OW73162   7.860   0.705   1.601
22772SOL    HW173163   7.933   0.742   1.552
22772SOL    HW273164   7.868   0.610   1.590
22773SOL     OW73165   9.028   0.767   1.717
22773SOL    HW173166   9.024   0.824   1.794
22773SOL    HW273167   9.072   0.819   1.650
22774SOL     OW73168   8.459   0.074   1.741
22774SOL    HW173169   8.511   0.154   1.735
22774SOL    HW273170   8.478   0.027   1.660
22775SOL     OW73171   7.922   0.004   1.757
22775SOL    HW173172   7.968   0.027   1.677
22775SOL    HW273173   7.834   9.982   1.729
22776SOL     OW73174   7.911   0.984   1.038
22776SOL    HW173175   8.002   1.010   1.030
22776SOL    HW273176   7.907   0.933   1.118
22777SOL     OW73177   8.723   0.839   0.972
22777SOL    HW173178   8.656   0.793   0.921
22777SOL    HW273179   8.796   0.777   0.977
22778SOL     OW73180   7.687   0.130   1.250
22778SOL    HW173181   7.690   0.132   1.346
22778SOL    HW273182   7.668   0.039   1.229
22779SOL     OW73183   7.519   1.329   1.256
22779SOL    HW173184   7.535   1.261   1.321
22779SOL    HW273185   7.515   1.410   1.306
22780SOL     OW73186   8.135   0.628   1.065
22780SOL    HW173187   8.165   0.610   1.154
22780SOL    HW273188   8.210   0.670   1.023
22781SOL     OW73189   7.729   0.082   0.632
22781SOL    HW173190   7.736   0.177   0.620
22781SOL    HW273191   7.717   0.070   0.726
22782SOL     OW73192   9.072   0.413   0.323
22782SOL    HW173193   9.113   0.353   0.385
22782SOL    HW273194   9.028   0.478   0.378
22783SOL     OW73195   8.379   0.742   0.990
22783SOL    HW173196   8.394   0.684   1.064
22783SOL    HW273197   8.442   0.712   0.924
22784SOL     OW73198   8.328   1.598   1.669
22784SOL    HW173199   8.370   1.631   1.589
22784SOL    HW273200   8.388   1.531   1.702
22785SOL     OW73201   9.283   1.478   1.604
22785SOL    HW173202   9.322   1.508   1.522
22785SOL    HW273203   9.356   1.476   1.666
22786SOL     OW73204   7.794   0.885   1.815
22786SOL    HW173205   7.873   0.912   1.862
22786SOL    HW273206   7.825   0.821   1.751
22787SOL     OW73207   9.023   0.145   0.165
22787SOL    HW173208   8.933   0.113   0.172
22787SOL    HW273209   9.022   0.230   0.209
22788SOL     OW73210   8.525   1.331   0.867
22788SOL    HW173211   8.542   1.244   0.831
22788SOL    HW273212   8.569   1.330   0.952
22789SOL     OW73213   7.703   0.807   0.935
22789SOL    HW173214   7.788   0.848   0.954
22789SOL    HW273215   7.711   0.717   0.967
22790SOL     OW73216   7.773   0.551   1.017
22790SOL    HW173217   7.734   0.464   1.022
22790SOL    HW273218   7.853   0.539   0.965
22791SOL     OW73219   8.579   0.324   1.778
22791SOL    HW173220   8.526   0.379   1.721
22791SOL    HW273221   8.668   0.359   1.770
22792SOL     OW73222   8.541   0.251   1.467
22792SOL    HW173223   8.510   0.332   1.506
22792SOL    HW273224   8.599   0.279   1.396
22793SOL     OW73225   7.516   1.780   0.945
22793SOL    HW173226   7.498   1.697   0.903
22793SOL    HW273227   7.610   1.793   0.933
22794SOL     OW73228   7.961   1.585   0.903
22794SOL    HW173229   8.031   1.648   0.918
22794SOL    HW273230   8.003   1.514   0.854
22795SOL     OW73231   7.463   0.554   1.096
22795SOL    HW173232   7.518   0.480   1.068
22795SOL    HW273233   7.484   0.566   1.189
22796SOL     OW73234   8.731   0.932   1.592
22796SOL    HW173235   8.780   1.014   1.606
22796SOL    HW273236   8.783   0.884   1.528
22797SOL     OW73237   8.241   0.630   0.162
22797SOL    HW173238   8.296   0.585   0.227
22797SOL    HW273239   8.163   0.657   0.212
22798SOL     OW73240   9.076   0.606   1.171
22798SOL    HW173241   9.062   0.552   1.249
22798SOL    HW273242   9.163   0.582   1.139
22799SOL     OW73243   7.704   1.539   1.761
22799SOL    HW173244   7.765   1.562   1.830
22799SOL    HW273245   7.701   1.443   1.761
22800SOL     OW73246   8.437   1.678   1.427
22800SOL    HW173247   8.406   1.631   1.350
22800SOL    HW273248   8.410   1.769   1.413
22801SOL     OW73249   7.880   0.493   0.155
22801SOL    HW173250   7.933   0.571   0.169
22801SOL    HW273251   7.876   0.451   0.241
22802SOL     OW73252   7.573   1.152   1.476
22802SOL    HW173253   7.586   1.111   1.561
22802SOL    HW273254   7.597   1.085   1.412
22803SOL     OW73255   8.745   1.011   1.190
22803SOL    HW173256   8.740   0.950   1.117
22803SOL    HW273257   8.713   1.094   1.155
22804SOL     OW73258   9.255   1.731   1.192
22804SOL    HW173259   9.302   1.752   1.111
22804SOL    HW273260   9.197   1.659   1.167
22805SOL     OW73261   8.655   1.731   1.098
22805SOL    HW173262   8.743   1.759   1.074
22805SOL    HW273263   8.663   1.637   1.112
22806SOL     OW73264   7.557   1.326   0.983
22806SOL    HW173265   7.535   1.320   1.076
22806SOL    HW273266   7.589   1.238   0.960
22807SOL     OW73267   8.103   1.739   1.744
22807SOL    HW173268   8.103   1.712   1.836
22807SOL    HW273269   8.183   1.700   1.708
22808SOL     OW73270   9.246   0.228   0.465
22808SOL    HW173271   9.278   0.212   0.376
22808SOL    HW273272   9.255   0.144   0.510
22809SOL     OW73273   8.827   1.564   0.289
22809SOL    HW173274   8.900   1.611   0.330
22809SOL    HW273275   8.766   1.548   0.361
22810SOL     OW73276   7.533   1.842   1.876
22810SOL    HW173277   7.492   1.761   1.908
22810SOL    HW273278   7.612   1.852   1.930
22811SOL     OW73279   8.794   0.994   0.683
22811SOL    HW173280   8.812   0.903   0.703
22811SOL    HW273281   8.858   1.018   0.615
22812SOL     OW73282   8.216   1.236   1.402
22812SOL    HW173283   8.194   1.291   1.477
22812SOL    HW273284   8.147   1.255   1.337
22813SOL     OW73285   8.069   1.522   0.186
22813SOL    HW173286   8.023   1.498   0.105
22813SOL    HW273287   8.112   1.441   0.213
22814SOL     OW73288   9.055   1.739   1.405
22814SOL    HW173289   9.122   1.735   1.337
22814SOL    HW273290   9.036   1.832   1.415
22815SOL     OW73291   9.284   0.146   0.965
22815SOL    HW173292   9.283   0.051   0.962
22815SOL    HW273293   9.203   0.173   0.922
22816SOL     OW73294   7.758   0.362   0.680
22816SOL    HW173295   7.766   0.456   0.698
22816SOL    HW273296   7.806   0.320   0.751
22817SOL     OW73297   8.635   1.575   0.039
22817SOL    HW173298   8.640   1.502   0.101
22817SOL    HW273299   8.582   1.541   9.967
22818SOL     OW73300   8.291   0.975   1.406
22818SOL    HW173301   8.285   0.958   1.312
22818SOL    HW273302   8.268   1.067   1.416
22819SOL     OW73303   8.436   0.862   0.324
22819SOL    HW173304   8.504   0.889   0.262
22819SOL    HW273305   8.450   0.768   0.335
22820SOL     OW73306   8.910   1.671   0.036
22820SOL    HW173307   8.842   1.626   0.087
22820SOL    HW273308   8.901   1.635   9.948
22821SOL     OW73309   7.793   1.334   1.520
22821SOL    HW173310   7.799   1.396   1.447
22821SOL    HW273311   7.725   1.273   1.493
22822SOL     OW73312   9.031   1.313   1.281
22822SOL    HW173313   9.080   1.278   1.356
22822SOL    HW273314   8.963   1.368   1.321
22823SOL     OW73315   8.540   1.102   0.724
22823SOL    HW173316   8.480   1.036   0.759
22823SOL    HW273317   8.622   1.055   0.710
22824SOL     OW73318   8.457   0.310   1.025
22824SOL    HW173319   8.473   0.327   0.932
22824SOL    HW273320   8.437   0.396   1.062
22825SOL     OW73321   8.107   1.461   0.522
22825SOL    HW173322   8.032   1.464   0.462
22825SOL    HW273323   8.149   1.547   0.514
22826SOL     OW73324   9.178   0.409   1.373
22826SOL    HW173325   9.260   0.458   1.368
22826SOL    HW273326   9.193   0.333   1.317
22827SOL     OW73327   7.677   1.288   0.478
22827SOL    HW173328   7.641   1.263   0.393
22827SOL    HW273329   7.633   1.371   0.499
22828SOL     OW73330   7.578   1.036   1.727
22828SOL    HW173331   7.500   1.009   1.776
22828SOL    HW273332   7.646   0.977   1.758
22829SOL     OW73333   8.082   0.218   1.519
22829SOL    HW173334   8.158   0.190   1.469
22829SOL    HW273335   8.114   0.225   1.609
22830SOL     OW73336   7.453   0.425   9.966
22830SOL    HW173337   7.487   0.336   9.953
22830SOL    HW273338   7.518   0.467   0.023
22831SOL     OW73339   8.863   0.839   1.374
22831SOL    HW173340   8.818   0.893   1.308
22831SOL    HW273341   8.956   0.849   1.353
22832SOL     OW73342   8.583   1.362   0.236
22832SOL    HW173343   8.499   1.377   0.192
22832SOL    HW273344   8.591   1.434   0.298
22833SOL     OW73345   8.084   0.784   1.440
22833SOL    HW173346   8.146   0.856   1.454
22833SOL    HW273347   8.134   0.718   1.394
22834SOL     OW73348   8.923   1.764   1.024
22834SOL    HW173349   8.919   1.722   0.938
22834SOL    HW273350   8.978   1.705   1.076
22835SOL     OW73351   8.235   0.488   1.751
22835SOL    HW173352   8.238   0.579   1.780
22835SOL    HW273353   8.305   0.481   1.687
22836SOL     OW73354   8.899   1.159   1.619
22836SOL    HW173355   8.912   1.154   1.713
22836SOL    HW273356   8.986   1.177   1.584
22837SOL     OW73357   7.803   1.749   1.555
22837SOL    HW173358   7.718   1.792   1.567
22837SOL    HW273359   7.798   1.670   1.609
22838SOL     OW73360   9.113   0.876   1.262
22838SOL    HW173361   9.110   0.792   1.216
22838SOL    HW273362   9.109   0.942   1.193
22839SOL     OW73363   8.003   0.739   0.665
22839SOL    HW173364   8.063   0.810   0.644
22839SOL    HW273365   7.946   0.732   0.588
22840SOL     OW73366   9.170   0.354   1.643
22840SOL    HW173367   9.183   0.380   1.551
22840SOL    HW273368   9.091   0.300   1.642
22841SOL     OW73369   9.179   0.908   1.530
22841SOL    HW173370   9.271   0.880   1.539
22841SOL    HW273371   9.162   0.902   1.436
22842SOL     OW73372   8.363   1.430   0.064
22842SOL    HW173373   8.297   1.367   0.094
22842SOL    HW273374   8.348   1.508   0.118
22843SOL     OW73375   8.138   1.796   0.915
22843SOL    HW173376   8.092   1.880   0.910
22843SOL    HW273377   8.191   1.794   0.835
22844SOL     OW73378   8.314   0.981   0.870
22844SOL    HW173379   8.336   0.897   0.909
22844SOL    HW273380   8.260   1.025   0.936
22845SOL     OW73381   8.641   0.903   0.129
22845SOL    HW173382   8.584   0.842   0.081
22845SOL    HW273383   8.706   0.847   0.171
22846SOL     OW73384   9.335   1.507   0.797
22846SOL    HW173385   9.269   1.457   0.749
22846SOL    HW273386   9.367   1.446   0.864
22847SOL     OW73387   7.682   1.267   1.841
22847SOL    HW173388   7.638   1.190   1.805
22847SOL    HW273389   7.669   1.259   1.936
22848SOL     OW73390   7.529   1.177   0.685
22848SOL    HW173391   7.590   1.150   0.754
22848SOL    HW273392   7.586   1.211   0.615
22849SOL     OW73393   8.143   1.410   1.595
22849SOL    HW173394   8.078   1.402   1.664
22849SOL    HW273395   8.199   1.482   1.622
22850SOL     OW73396   9.178   0.175   1.224
22850SOL    HW173397   9.137   0.089   1.214
22850SOL    HW273398   9.228   0.188   1.144
22851SOL     OW73399   7.853   0.405   0.419
22851SOL    HW173400   7.912   0.334   0.390
22851SOL    HW273401   7.823   0.377   0.505
22852SOL     OW73402   9.084   1.535   1.113
22852SOL    HW173403   9.047   1.503   1.031
22852SOL    HW273404   9.081   1.459   1.172
22853SOL     OW73405   7.775   0.576   1.297
22853SOL    HW173406   7.820   0.509   1.349
22853SOL    HW273407   7.796   0.554   1.207
22854SOL     OW73408   8.865   0.241   1.098
22854SOL    HW173409   8.908   0.179   1.157
22854SOL    HW273410   8.802   0.286   1.154
22855SOL     OW73411   8.396   0.073   1.154
22855SOL    HW173412   8.354   0.022   1.085
22855SOL    HW273413   8.428   0.152   1.111
22856SOL     OW73414   8.177   1.269   0.199
22856SOL    HW173415   8.095   1.249   0.154
22856SOL    HW273416   8.192   1.193   0.256
22857SOL     OW73417   8.065   1.588   1.280
22857SOL    HW173418   8.056   1.679   1.308
22857SOL    HW273419   8.159   1.578   1.263
22858SOL     OW73420   8.758   0.065   0.196
22858SOL    HW173421   8.706   0.116   0.133
22858SOL    HW273422   8.701   9.991   0.219
22859SOL     OW73423   9.036   0.219   0.862
22859SOL    HW173424   8.972   0.224   0.934
22859SOL    HW273425   9.037   0.307   0.825
22860SOL     OW73426   8.322   1.626   0.249
22860SOL    HW173427   8.227   1.622   0.234
22860SOL    HW273428   8.331   1.665   0.336
22861SOL     OW73429   7.641   0.336   2.846
22861SOL    HW173430   7.705   0.271   2.876
22861SOL    HW273431   7.562   0.286   2.827
22862SOL     OW73432   7.439   0.438   2.459
22862SOL    HW173433   7.354   0.435   2.503
22862SOL    HW273434   7.421   0.408   2.370
22863SOL     OW73435   8.024   1.322   3.072
22863SOL    HW173436   7.944   1.328   3.018
22863SOL    HW273437   8.049   1.414   3.086
22864SOL     OW73438   8.988   1.514   2.530
22864SOL    HW173439   8.966   1.495   2.621
22864SOL    HW273440   8.908   1.491   2.481
22865SOL     OW73441   8.592   0.701   2.552
22865SOL    HW173442   8.640   0.780   2.527
22865SOL    HW273443   8.570   0.715   2.644
22866SOL     OW73444   8.173   1.150   2.920
22866SOL    HW173445   8.121   1.196   2.986
22866SOL    HW273446   8.216   1.219   2.870
22867SOL     OW73447   8.247   0.769   3.686
22867SOL    HW173448   8.317   0.765   3.751
22867SOL    HW273449   8.287   0.812   3.610
22868SOL     OW73450   8.119   0.983   2.518
22868SOL    HW173451   8.176   0.971   2.594
22868SOL    HW273452   8.054   1.047   2.546
22869SOL     OW73453   8.140   1.147   3.678
22869SOL    HW173454   8.176   1.227   3.717
22869SOL    HW273455   8.058   1.176   3.638
22870SOL     OW73456   7.794   1.416   2.931
22870SOL    HW173457   7.723   1.380   2.879
22870SOL    HW273458   7.840   1.475   2.872
22871SOL     OW73459   8.918   1.503   3.287
22871SOL    HW173460   8.966   1.585   3.275
22871SOL    HW273461   8.982   1.442   3.324
22872SOL     OW73462   7.929   0.384   3.300
22872SOL    HW173463   8.011   0.344   3.328
22872SOL    HW273464   7.878   0.311   3.263
22873SOL     OW73465   9.034   0.468   2.602
22873SOL    HW173466   8.957   0.465   2.546
22873SOL    HW273467   9.012   0.531   2.671
22874SOL     OW73468   7.656   1.746   2.344
22874SOL    HW173469   7.685   1.819   2.399
22874SOL    HW273470   7.734   1.722   2.294
22875SOL     OW73471   8.586   1.310   3.528
22875SOL    HW173472   8.673   1.272   3.514
22875SOL    HW273473   8.529   1.235   3.540
22876SOL     OW73474   7.644   1.457   2.369
22876SOL    HW173475   7.644   1.548   2.400
22876SOL    HW273476   7.627   1.405   2.447
22877SOL     OW73477   7.694   1.065   2.738
22877SOL    HW173478   7.728   0.985   2.778
22877SOL    HW273479   7.600   1.063   2.758
22878SOL     OW73480   7.975   1.829   3.255
22878SOL    HW173481   7.924   1.797   3.329
22878SOL    HW273482   8.027   1.901   3.290
22879SOL     OW73483   7.995   1.008   2.002
22879SOL    HW173484   8.056   1.049   1.940
22879SOL    HW273485   8.034   1.023   2.087
22880SOL     OW73486   8.866   0.129   3.326
22880SOL    HW173487   8.838   0.212   3.289
22880SOL    HW273488   8.898   0.151   3.413
22881SOL     OW73489   7.576   0.680   2.436
22881SOL    HW173490   7.531   0.596   2.439
22881SOL    HW273491   7.570   0.713   2.526
22882SOL     OW73492   9.362   1.742   2.245
22882SOL    HW173493   9.286   1.728   2.302
22882SOL    HW273494   9.353   1.833   2.216
22883SOL     OW73495   7.424   1.599   1.978
22883SOL    HW173496   7.383   1.579   1.894
22883SOL    HW273497   7.440   1.514   2.018
22884SOL     OW73498   9.147   0.813   2.438
22884SOL    HW173499   9.226   0.822   2.491
22884SOL    HW273500   9.133   0.900   2.401
22885SOL     OW73501   9.114   1.072   2.330
22885SOL    HW173502   9.182   1.087   2.264
22885SOL    HW273503   9.132   1.137   2.398
22886SOL     OW73504   7.626   0.730   3.451
22886SOL    HW173505   7.720   0.749   3.450
22886SOL    HW273506   7.584   0.814   3.467
22887SOL     OW73507   8.029   1.395   2.629
22887SOL    HW173508   7.993   1.307   2.617
22887SOL    HW273509   8.043   1.427   2.540
22888SOL     OW73510   8.710   1.243   3.259
22888SOL    HW173511   8.730   1.170   3.200
22888SOL    HW273512   8.775   1.235   3.329
22889SOL     OW73513   8.278   0.024   2.441
22889SOL    HW173514   8.313   0.094   2.387
22889SOL    HW273515   8.184   0.022   2.421
22890SOL     OW73516   7.607   0.943   3.136
22890SOL    HW173517   7.682   0.929   3.078
22890SOL    HW273518   7.549   0.869   3.120
22891SOL     OW73519   8.902   0.974   2.172
22891SOL    HW173520   8.951   0.919   2.110
22891SOL    HW273521   8.969   1.013   2.228
22892SOL     OW73522   8.554   1.808   3.431
22892SOL    HW173523   8.607   1.866   3.376
22892SOL    HW273524   8.602   1.725   3.431
22893SOL     OW73525   7.829   0.291   3.645
22893SOL    HW173526   7.916   0.255   3.627
22893SOL    HW273527   7.840   0.339   3.728
22894SOL     OW73528   8.870   1.439   2.779
22894SOL    HW173529   8.851   1.454   2.871
22894SOL    HW273530   8.865   1.344   2.769
22895SOL     OW73531   9.125   1.741   2.392
22895SOL    HW173532   9.051   1.780   2.346
22895SOL    HW273533   9.088   1.667   2.440
22896SOL     OW73534   8.034   0.684   2.140
22896SOL    HW173535   8.063   0.768   2.104
22896SOL    HW273536   7.969   0.707   2.206
22897SOL     OW73537   8.726   0.398   2.809
22897SOL    HW173538   8.639   0.358   2.819
22897SOL    HW273539   8.784   0.341   2.860
22898SOL     OW73540   8.998   1.548   2.135
22898SOL    HW173541   9.073   1.607   2.143
22898SOL    HW273542   9.024   1.487   2.065
22899SOL     OW73543   8.204   0.614   3.278
22899SOL    HW173544   8.183   0.585   3.367
22899SOL    HW273545   8.278   0.559   3.252
22900SOL     OW73546   8.361   0.865   3.448
22900SOL    HW173547   8.421   0.798   3.417
22900SOL    HW273548   8.331   0.909   3.368
22901SOL     OW73549   8.374   0.444   3.124
22901SOL    HW173550   8.414   0.390   3.193
22901SOL    HW273551   8.427   0.426   3.046
22902SOL     OW73552   8.455   0.744   2.312
22902SOL    HW173553   8.496   0.720   2.395
22902SOL    HW273554   8.390   0.675   2.297
22903SOL     OW73555   7.545   0.791   2.686
22903SOL    HW173556   7.617   0.788   2.750
22903SOL    HW273557   7.492   0.866   2.714
22904SOL     OW73558   7.536   1.844   3.464
22904SOL    HW173559   7.548   1.844   3.559
22904SOL    HW273560   7.476   1.770   3.448
22905SOL     OW73561   8.371   0.389   2.071
22905SOL    HW173562   8.388   0.466   2.016
22905SOL    HW273563   8.439   0.327   2.046
22906SOL     OW73564   8.823   1.196   2.473
22906SOL    HW173565   8.894   1.192   2.409
22906SOL    HW273566   8.781   1.281   2.457
22907SOL     OW73567   7.957   0.263   2.824
22907SOL    HW173568   8.023   0.245   2.891
22907SOL    HW273569   7.996   0.334   2.771
22908SOL     OW73570   7.803   1.839   2.763
22908SOL    HW173571   7.851   1.755   2.763
22908SOL    HW273572   7.872   1.905   2.771
22909SOL     OW73573   9.231   1.030   2.680
22909SOL    HW173574   9.206   1.109   2.632
22909SOL    HW273575   9.183   1.036   2.763
22910SOL     OW73576   8.667   1.558   3.407
22910SOL    HW173577   8.640   1.472   3.440
22910SOL    HW273578   8.749   1.541   3.362
22911SOL     OW73579   7.733   1.002   2.095
22911SOL    HW173580   7.822   1.016   2.064
22911SOL    HW273581   7.703   0.924   2.050
22912SOL     OW73582   8.908   0.792   2.577
22912SOL    HW173583   8.919   0.727   2.646
22912SOL    HW273584   8.991   0.792   2.530
22913SOL     OW73585   7.906   1.282   3.616
22913SOL    HW173586   7.868   1.293   3.529
22913SOL    HW273587   7.831   1.272   3.674
22914SOL     OW73588   7.657   0.184   3.426
22914SOL    HW173589   7.597   0.257   3.413
22914SOL    HW273590   7.716   0.213   3.495
22915SOL     OW73591   9.072   1.380   1.928
22915SOL    HW173592   9.062   1.418   1.840
22915SOL    HW273593   9.028   1.295   1.922
22916SOL     OW73594   7.906   1.733   2.218
22916SOL    HW173595   7.958   1.796   2.268
22916SOL    HW273596   7.963   1.706   2.146
22917SOL     OW73597   8.831   0.127   2.252
22917SOL    HW173598   8.849   0.077   2.173
22917SOL    HW273599   8.901   0.192   2.257
22918SOL     OW73600   7.720   1.760   3.082
22918SOL    HW173601   7.791   1.720   3.132
22918SOL    HW273602   7.741   1.740   2.990
22919SOL     OW73603   8.421   1.661   2.710
22919SOL    HW173604   8.514   1.641   2.705
22919SOL    HW273605   8.381   1.609   2.640
22920SOL     OW73606   7.837   0.684   2.340
22920SOL    HW173607   7.847   0.589   2.342
22920SOL    HW273608   7.745   0.698   2.363
22921SOL     OW73609   8.945   0.219   3.578
22921SOL    HW173610   9.025   0.241   3.626
22921SOL    HW273611   8.918   0.301   3.538
22922SOL     OW73612   8.085   0.069   1.963
22922SOL    HW173613   8.135   0.130   1.909
22922SOL    HW273614   8.019   0.034   1.903
22923SOL     OW73615   8.299   1.522   3.032
22923SOL    HW173616   8.294   1.481   2.945
22923SOL    HW273617   8.367   1.473   3.077
22924SOL     OW73618   8.784   0.633   3.309
22924SOL    HW173619   8.856   0.581   3.345
22924SOL    HW273620   8.822   0.720   3.296
22925SOL     OW73621   8.271   1.376   2.792
22925SOL    HW173622   8.354   1.366   2.745
22925SOL    HW273623   8.207   1.397   2.723
22926SOL     OW73624   8.379   0.512   2.770
22926SOL    HW173625   8.348   0.501   2.680
22926SOL    HW273626   8.411   0.425   2.795
22927SOL     OW73627   8.006   0.021   2.386
22927SOL    HW173628   7.933   0.045   2.443
22927SOL    HW273629   7.998   0.080   2.311
22928SOL     OW73630   8.945   1.133   1.893
22928SOL    HW173631   9.017   1.074   1.915
22928SOL    HW273632   8.869   1.096   1.938
22929SOL     OW73633   7.666   0.033   1.969
22929SOL    HW173634   7.751   0.005   2.004
22929SOL    HW273635   7.628   9.953   1.932
22930SOL     OW73636   8.400   0.218   2.285
22930SOL    HW173637   8.366   0.283   2.223
22930SOL    HW273638   8.485   0.253   2.311
22931SOL     OW73639   8.518   0.664   3.341
22931SOL    HW173640   8.512   0.603   3.415
22931SOL    HW273641   8.612   0.667   3.320
22932SOL     OW73642   8.684   1.599   2.645
22932SOL    HW173643   8.686   1.545   2.566
22932SOL    HW273644   8.742   1.554   2.706
22933SOL     OW73645   7.906   1.150   2.578
22933SOL    HW173646   7.839   1.120   2.640
22933SOL    HW273647   7.864   1.145   2.493
22934SOL     OW73648   8.695   1.779   2.423
22934SOL    HW173649   8.750   1.857   2.430
22934SOL    HW273650   8.692   1.744   2.513
22935SOL     OW73651   8.488   0.604   1.946
22935SOL    HW173652   8.528   0.601   1.859
22935SOL    HW273653   8.560   0.585   2.006
22936SOL     OW73654   7.600   0.549   3.243
22936SOL    HW173655   7.691   0.561   3.216
22936SOL    HW273656   7.590   0.609   3.318
22937SOL     OW73657   8.057   0.197   3.086
22937SOL    HW173658   8.106   0.185   3.167
22937SOL    HW273659   7.966   0.177   3.110
22938SOL     OW73660   8.271   0.448   2.519
22938SOL    HW173661   8.258   0.499   2.440
22938SOL    HW273662   8.311   0.366   2.489
22939SOL     OW73663   8.414   0.053   2.683
22939SOL    HW173664   8.368   0.046   2.599
22939SOL    HW273665   8.444   9.964   2.702
22940SOL     OW73666   8.857   1.154   2.746
22940SOL    HW173667   8.816   1.071   2.766
22940SOL    HW273668   8.849   1.164   2.651
22941SOL     OW73669   8.902   0.624   2.796
22941SOL    HW173670   8.832   0.561   2.812
22941SOL    HW273671   8.953   0.624   2.877
22942SOL     OW73672   7.892   1.481   1.971
22942SOL    HW173673   7.831   1.435   2.028
22942SOL    HW273674   7.923   1.414   1.910
22943SOL     OW73675   9.172   1.263   2.521
22943SOL    HW173676   9.266   1.279   2.522
22943SOL    HW273677   9.133   1.350   2.527
22944SOL     OW73678   8.819   0.660   1.932
22944SOL    HW173679   8.783   0.607   2.003
22944SOL    HW273680   8.898   0.698   1.969
22945SOL     OW73681   7.986   0.210   2.178
22945SOL    HW173682   8.026   0.155   2.110
22945SOL    HW273683   7.961   0.290   2.133
22946SOL     OW73684   9.131   1.299   3.391
22946SOL    HW173685   9.191   1.224   3.386
22946SOL    HW273686   9.186   1.371   3.422
22947SOL     OW73687   8.466   1.346   3.166
22947SOL    HW173688   8.396   1.311   3.220
22947SOL    HW273689   8.546   1.318   3.210
22948SOL     OW73690   9.051   1.660   3.544
22948SOL    HW173691   9.033   1.695   3.457
22948SOL    HW273692   9.132   1.609   3.533
22949SOL     OW73693   8.611   1.267   2.939
22949SOL    HW173694   8.540   1.299   2.994
22949SOL    HW273695   8.583   1.287   2.850
22950SOL     OW73696   9.071   1.071   2.905
22950SOL    HW173697   9.088   1.134   2.975
22950SOL    HW273698   8.997   1.108   2.857
22951SOL     OW73699   8.403   1.104   3.578
22951SOL    HW173700   8.312   1.117   3.606
22951SOL    HW273701   8.401   1.023   3.527
22952SOL     OW73702   8.127   1.048   2.243
22952SOL    HW173703   8.125   1.025   2.336
22952SOL    HW273704   8.200   0.998   2.207
22953SOL     OW73705   8.781   0.367   3.201
22953SOL    HW173706   8.869   0.400   3.221
22953SOL    HW273707   8.724   0.443   3.214
22954SOL     OW73708   7.551   1.581   3.235
22954SOL    HW173709   7.556   1.660   3.180
22954SOL    HW273710   7.642   1.552   3.242
22955SOL     OW73711   7.762   1.147   2.338
22955SOL    HW173712   7.784   1.222   2.282
22955SOL    HW273713   7.754   1.073   2.277
22956SOL     OW73714   8.045   0.498   2.688
22956SOL    HW173715   8.022   0.583   2.649
22956SOL    HW273716   8.121   0.468   2.638
22957SOL     OW73717   8.784   1.471   3.041
22957SOL    HW173718   8.825   1.467   3.128
22957SOL    HW273719   8.733   1.391   3.035
22958SOL     OW73720   9.081   0.610   2.250
22958SOL    HW173721   9.101   0.664   2.327
22958SOL    HW273722   9.033   0.668   2.191
22959SOL     OW73723   7.807   1.497   3.192
22959SOL    HW173724   7.795   1.463   3.103
22959SOL    HW273725   7.898   1.524   3.196
22960SOL     OW73726   7.900   0.753   3.466
22960SOL    HW173727   7.941   0.792   3.389
22960SOL    HW273728   7.962   0.685   3.494
22961SOL     OW73729   9.106   0.855   3.567
22961SOL    HW173730   9.100   0.764   3.538
22961SOL    HW273731   9.137   0.902   3.489
22962SOL     OW73732   7.893   9.970   3.621
22962SOL    HW173733   7.909   0.016   3.538
22962SOL    HW273734   7.941   0.021   3.686
22963SOL     OW73735   8.020   0.895   2.926
22963SOL    HW173736   8.074   0.866   2.853
22963SOL    HW273737   8.052   0.982   2.947
22964SOL     OW73738   8.766   0.894   2.834
22964SOL    HW173739   8.684   0.847   2.825
22964SOL    HW273740   8.834   0.832   2.807
22965SOL     OW73741   8.681   0.520   2.130
22965SOL    HW173742   8.670   0.450   2.195
22965SOL    HW273743   8.702   0.598   2.181
22966SOL     OW73744   7.795   0.179   3.177
22966SOL    HW173745   7.730   0.157   3.244
22966SOL    HW273746   7.760   0.142   3.096
22967SOL     OW73747   7.494   1.332   3.116
22967SOL    HW173748   7.506   1.262   3.179
22967SOL    HW273749   7.513   1.412   3.165
22968SOL     OW73750   8.234   0.703   2.907
22968SOL    HW173751   8.266   0.626   2.860
22968SOL    HW273752   8.263   0.777   2.855
22969SOL     OW73753   9.199   0.959   3.801
22969SOL    HW173754   9.168   0.916   3.722
22969SOL    HW273755   9.120   0.973   3.853
22970SOL     OW73756   7.787   0.098   2.529
22970SOL    HW173757   7.765   0.190   2.542
22970SOL    HW273758   7.707   0.051   2.552
22971SOL     OW73759   9.022   0.328   2.232
22971SOL    HW173760   9.096   0.289   2.278
22971SOL    HW273761   9.033   0.423   2.244
22972SOL     OW73762   8.537   0.735   2.826
22972SOL    HW173763   8.518   0.758   2.917
22972SOL    HW273764   8.489   0.654   2.811
22973SOL     OW73765   8.420   1.499   3.635
22973SOL    HW173766   8.394   1.554   3.561
22973SOL    HW273767   8.475   1.430   3.597
22974SOL     OW73768   9.280   1.528   3.462
22974SOL    HW173769   9.311   1.545   3.373
22974SOL    HW273770   9.359   1.531   3.516
22975SOL     OW73771   7.808   0.913   3.675
22975SOL    HW173772   7.877   0.939   3.735
22975SOL    HW273773   7.853   0.859   3.610
22976SOL     OW73774   8.959   0.283   1.955
22976SOL    HW173775   8.991   0.366   1.917
22976SOL    HW273776   8.983   0.288   2.047
22977SOL     OW73777   8.710   0.911   1.869
22977SOL    HW173778   8.742   0.826   1.899
22977SOL    HW273779   8.722   0.909   1.774
22978SOL     OW73780   8.511   1.304   2.672
22978SOL    HW173781   8.500   1.211   2.651
22978SOL    HW273782   8.534   1.344   2.588
22979SOL     OW73783   7.759   0.822   2.875
22979SOL    HW173784   7.847   0.854   2.892
22979SOL    HW273785   7.768   0.726   2.873
22980SOL     OW73786   7.829   0.548   2.868
22980SOL    HW173787   7.767   0.478   2.850
22980SOL    HW273788   7.904   0.530   2.812
22981SOL     OW73789   8.560   0.511   3.562
22981SOL    HW173790   8.521   0.525   3.648
22981SOL    HW273791   8.654   0.509   3.578
22982SOL     OW73792   8.503   0.270   3.294
22982SOL    HW173793   8.477   0.237   3.380
22982SOL    HW273794   8.598   0.284   3.302
22983SOL     OW73795   7.417   1.329   2.058
22983SOL    HW173796   7.335   1.331   2.008
22983SOL    HW273797   7.422   1.240   2.092
22984SOL     OW73798   7.532   1.801   2.809
22984SOL    HW173799   7.512   1.716   2.769
22984SOL    HW273800   7.626   1.813   2.793
22985SOL     OW73801   7.943   1.603   2.783
22985SOL    HW173802   8.023   1.652   2.801
22985SOL    HW273803   7.972   1.532   2.725
22986SOL     OW73804   8.450   0.765   3.089
22986SOL    HW173805   8.479   0.734   3.175
22986SOL    HW273806   8.374   0.712   3.069
22987SOL     OW73807   7.490   0.531   2.989
22987SOL    HW173808   7.542   0.471   2.935
22987SOL    HW273809   7.538   0.536   3.072
22988SOL     OW73810   7.677   0.540   3.646
22988SOL    HW173811   7.745   0.483   3.610
22988SOL    HW273812   7.655   0.599   3.574
22989SOL     OW73813   8.764   0.962   3.517
22989SOL    HW173814   8.814   1.043   3.524
22989SOL    HW273815   8.789   0.924   3.433
22990SOL     OW73816   8.253   0.554   2.261
22990SOL    HW173817   8.288   0.498   2.192
22990SOL    HW273818   8.178   0.598   2.221
22991SOL     OW73819   9.056   0.611   3.019
22991SOL    HW173820   9.030   0.568   3.101
22991SOL    HW273821   9.147   0.583   3.005
22992SOL     OW73822   7.660   1.537   3.582
22992SOL    HW173823   7.640   1.528   3.675
22992SOL    HW273824   7.691   1.450   3.555
22993SOL     OW73825   8.111   0.461   3.041
22993SOL    HW173826   8.079   0.372   3.053
22993SOL    HW273827   8.204   0.457   3.065
22994SOL     OW73828   8.327   1.656   3.419
22994SOL    HW173829   8.328   1.609   3.335
22994SOL    HW273830   8.403   1.713   3.415
22995SOL     OW73831   7.886   0.448   2.069
22995SOL    HW173832   7.945   0.523   2.061
22995SOL    HW273833   7.851   0.454   2.158
22996SOL     OW73834   7.541   1.134   3.323
22996SOL    HW173835   7.560   1.095   3.408
22996SOL    HW273836   7.573   1.070   3.259
22997SOL     OW73837   8.740   1.054   3.057
22997SOL    HW173838   8.760   0.991   2.988
22997SOL    HW273839   8.699   1.127   3.012
22998SOL     OW73840   8.734   0.762   2.237
22998SOL    HW173841   8.648   0.796   2.258
22998SOL    HW273842   8.787   0.840   2.219
22999SOL     OW73843   9.202   1.732   3.014
22999SOL    HW173844   9.271   1.760   2.954
22999SOL    HW273845   9.211   1.636   3.017
23000SOL     OW73846   8.705   1.740   3.018
23000SOL    HW173847   8.789   1.768   2.981
23000SOL    HW273848   8.716   1.646   3.031
23001SOL     OW73849   7.530   1.325   2.842
23001SOL    HW173850   7.523   1.317   2.937
23001SOL    HW273851   7.495   1.242   2.809
23002SOL     OW73852   8.155   1.745   3.619
23002SOL    HW173853   8.164   1.840   3.619
23002SOL    HW273854   8.213   1.715   3.549
23003SOL     OW73855   9.239   0.201   2.356
23003SOL    HW173856   9.270   0.184   2.267
23003SOL    HW273857   9.270   0.126   2.407
23004SOL     OW73858   7.598   1.824   3.727
23004SOL    HW173859   7.587   1.737   3.765
23004SOL    HW273860   7.690   1.845   3.741
23005SOL     OW73861   8.703   0.954   2.514
23005SOL    HW173862   8.780   0.901   2.532
23005SOL    HW273863   8.737   1.038   2.485
23006SOL     OW73864   8.217   1.270   3.271
23006SOL    HW173865   8.187   1.319   3.348
23006SOL    HW273866   8.148   1.284   3.206
23007SOL     OW73867   8.079   1.678   2.011
23007SOL    HW173868   8.152   1.656   2.068
23007SOL    HW273869   8.032   1.596   1.999
23008SOL     OW73870   9.058   1.745   3.270
23008SOL    HW173871   9.114   1.741   3.192
23008SOL    HW273872   9.037   1.838   3.280
23009SOL     OW73873   9.289   0.133   2.848
23009SOL    HW173874   9.299   0.045   2.811
23009SOL    HW273875   9.211   0.168   2.806
23010SOL     OW73876   7.685   0.353   2.562
23010SOL    HW173877   7.599   0.378   2.528
23010SOL    HW273878   7.676   0.359   2.657
23011SOL     OW73879   8.278   1.005   3.223
23011SOL    HW173880   8.344   1.000   3.155
23011SOL    HW273881   8.267   1.099   3.239
23012SOL     OW73882   8.322   0.902   2.128
23012SOL    HW173883   8.383   0.950   2.072
23012SOL    HW273884   8.378   0.848   2.184
23013SOL     OW73885   8.824   1.636   1.802
23013SOL    HW173886   8.764   1.600   1.737
23013SOL    HW273887   8.910   1.629   1.763
23014SOL     OW73888   7.746   1.328   3.399
23014SOL    HW173889   7.778   1.380   3.326
23014SOL    HW273890   7.691   1.260   3.358
23015SOL     OW73891   9.131   1.238   3.114
23015SOL    HW173892   9.226   1.228   3.124
23015SOL    HW273893   9.099   1.252   3.203
23016SOL     OW73894   8.455   1.042   2.588
23016SOL    HW173895   8.424   1.061   2.500
23016SOL    HW273896   8.542   1.004   2.575
23017SOL     OW73897   8.478   0.265   2.846
23017SOL    HW173898   8.462   0.201   2.777
23017SOL    HW273899   8.464   0.217   2.928
23018SOL     OW73900   8.057   1.482   2.371
23018SOL    HW173901   8.086   1.425   2.300
23018SOL    HW273902   8.018   1.557   2.326
23019SOL     OW73903   7.685   1.359   2.120
23019SOL    HW173904   7.592   1.351   2.097
23019SOL    HW273905   7.684   1.398   2.207
23020SOL     OW73906   7.577   1.017   3.573
23020SOL    HW173907   7.507   0.994   3.634
23020SOL    HW273908   7.657   0.981   3.613
23021SOL     OW73909   8.142   0.195   3.356
23021SOL    HW173910   8.224   0.146   3.357
23021SOL    HW273911   8.115   0.199   3.448
23022SOL     OW73912   8.852   0.898   3.261
23022SOL    HW173913   8.802   0.949   3.196
23022SOL    HW273914   8.940   0.894   3.225
23023SOL     OW73915   7.427   0.150   2.196
23023SOL    HW173916   7.401   0.240   2.177
23023SOL    HW273917   7.505   0.136   2.143
23024SOL     OW73918   8.064   0.839   3.256
23024SOL    HW173919   8.121   0.916   3.246
23024SOL    HW273920   8.121   0.771   3.289
23025SOL     OW73921   8.955   1.795   2.901
23025SOL    HW173922   8.958   1.740   2.823
23025SOL    HW273923   9.037   1.776   2.947
23026SOL     OW73924   8.108   0.581   3.544
23026SOL    HW173925   8.154   0.644   3.599
23026SOL    HW273926   8.121   0.497   3.587
23027SOL     OW73927   8.879   1.223   3.491
23027SOL    HW173928   8.893   1.221   3.585
23027SOL    HW273929   8.966   1.238   3.454
23028SOL     OW73930   7.801   1.752   3.460
23028SOL    HW173931   7.713   1.788   3.446
23028SOL    HW273932   7.786   1.666   3.499
23029SOL     OW73933   9.077   0.876   3.102
23029SOL    HW173934   9.072   0.788   3.064
23029SOL    HW273935   9.080   0.935   3.027
23030SOL     OW73936   8.650   0.321   2.333
23030SOL    HW173937   8.713   0.252   2.312
23030SOL    HW273938   8.690   0.369   2.405
23031SOL     OW73939   7.992   0.738   2.564
23031SOL    HW173940   8.043   0.816   2.541
23031SOL    HW273941   7.936   0.723   2.488
23032SOL     OW73942   9.187   0.979   3.333
23032SOL    HW173943   9.264   1.030   3.306
23032SOL    HW273944   9.154   0.941   3.251
23033SOL     OW73945   8.169   1.758   2.800
23033SOL    HW173946   8.204   1.839   2.763
23033SOL    HW273947   8.241   1.696   2.793
23034SOL     OW73948   8.262   0.942   2.761
23034SOL    HW173949   8.342   0.964   2.713
23034SOL    HW273950   8.247   1.016   2.820
23035SOL     OW73951   8.476   1.036   1.946
23035SOL    HW173952   8.484   1.129   1.965
23035SOL    HW273953   8.567   1.006   1.934
23036SOL     OW73954   9.414   1.511   2.773
23036SOL    HW173955   9.346   1.485   2.834
23036SOL    HW273956   9.480   1.442   2.779
23037SOL     OW73957   7.639   1.265   3.693
23037SOL    HW173958   7.618   1.183   3.649
23037SOL    HW273959   7.574   1.273   3.763
23038SOL     OW73960   7.580   1.231   2.531
23038SOL    HW173961   7.619   1.187   2.607
23038SOL    HW273962   7.627   1.196   2.456
23039SOL     OW73963   8.108   1.424   3.474
23039SOL    HW173964   8.053   1.384   3.541
23039SOL    HW273965   8.145   1.502   3.516
23040SOL     OW73966   9.293   0.136   3.136
23040SOL    HW173967   9.306   0.046   3.166
23040SOL    HW273968   9.290   0.130   3.041
23041SOL     OW73969   7.850   0.410   2.344
23041SOL    HW173970   7.899   0.330   2.326
23041SOL    HW273971   7.797   0.388   2.421
23042SOL     OW73972   9.232   1.457   2.972
23042SOL    HW173973   9.157   1.400   2.988
23042SOL    HW273974   9.304   1.415   3.019
23043SOL     OW73975   7.859   0.593   3.140
23043SOL    HW173976   7.891   0.521   3.195
23043SOL    HW273977   7.847   0.554   3.054
23044SOL     OW73978   8.315   1.510   2.506
23044SOL    HW173979   8.387   1.462   2.465
23044SOL    HW273980   8.241   1.497   2.447
23045SOL     OW73981   8.886   0.239   2.971
23045SOL    HW173982   8.920   0.154   3.001
23045SOL    HW273983   8.851   0.280   3.049
23046SOL     OW73984   8.427   0.119   3.074
23046SOL    HW173985   8.447   0.031   3.107
23046SOL    HW273986   8.444   0.177   3.148
23047SOL     OW73987   8.149   1.326   2.169
23047SOL    HW173988   8.160   1.233   2.188
23047SOL    HW273989   8.238   1.357   2.148
23048SOL     OW73990   8.056   1.592   3.133
23048SOL    HW173991   8.052   1.680   3.171
23048SOL    HW273992   8.145   1.585   3.098
23049SOL     OW73993   8.808   0.048   1.975
23049SOL    HW173994   8.857   0.129   1.960
23049SOL    HW273995   8.873   9.978   1.960
23050SOL     OW73996   8.754   0.470   2.541
23050SOL    HW173997   8.707   0.553   2.533
23050SOL    HW273998   8.742   0.444   2.632
23051SOL     OW73999   9.051   0.226   2.737
23051SOL    HW174000   8.992   0.241   2.811
23051SOL    HW274001   9.052   0.310   2.690
23052SOL     OW74002   7.474   1.078   2.171
23052SOL    HW174003   7.566   1.073   2.144
23052SOL    HW274004   7.450   0.989   2.195
23053SOL     OW74005   8.266   1.658   2.203
23053SOL    HW174006   8.312   1.578   2.177
23053SOL    HW274007   8.310   1.686   2.283
23054SOL     OW74008   7.681   0.686   3.886
23054SOL    HW174009   7.590   0.667   3.908
23054SOL    HW274010   7.689   0.660   3.794
23055SOL     OW74011   7.669   0.350   4.817
23055SOL    HW174012   7.711   0.309   4.892
23055SOL    HW274013   7.600   0.289   4.791
23056SOL     OW74014   7.433   0.351   4.309
23056SOL    HW174015   7.351   0.376   4.353
23056SOL    HW274016   7.476   0.434   4.290
23057SOL     OW74017   8.026   1.279   4.964
23057SOL    HW174018   7.957   1.259   5.027
23057SOL    HW274019   8.033   1.374   4.964
23058SOL     OW74020   9.059   1.502   4.405
23058SOL    HW174021   9.081   1.412   4.432
23058SOL    HW274022   9.000   1.491   4.331
23059SOL     OW74023   8.573   0.750   4.429
23059SOL    HW174024   8.631   0.826   4.425
23059SOL    HW274025   8.527   0.761   4.512
23060SOL     OW74026   9.190   0.503   3.982
23060SOL    HW174027   9.192   0.507   3.886
23060SOL    HW274028   9.281   0.483   4.007
23061SOL     OW74029   8.164   1.134   4.769
23061SOL    HW174030   8.108   1.171   4.837
23061SOL    HW274031   8.210   1.209   4.732
23062SOL     OW74032   8.328   0.715   5.544
23062SOL    HW174033   8.261   0.757   5.599
23062SOL    HW274034   8.353   0.783   5.481
23063SOL     OW74035   8.120   0.991   4.360
23063SOL    HW174036   8.192   0.988   4.424
23063SOL    HW274037   8.057   1.051   4.399
23064SOL     OW74038   8.164   1.207   5.528
23064SOL    HW174039   8.203   1.276   5.581
23064SOL    HW274040   8.142   1.249   5.445
23065SOL     OW74041   7.714   1.527   4.738
23065SOL    HW174042   7.687   1.437   4.717
23065SOL    HW274043   7.788   1.544   4.680
23066SOL     OW74044   8.906   1.497   5.102
23066SOL    HW174045   8.972   1.564   5.118
23066SOL    HW274046   8.836   1.517   5.164
23067SOL     OW74047   7.893   0.395   5.282
23067SOL    HW174048   7.975   0.345   5.280
23067SOL    HW274049   7.824   0.329   5.279
23068SOL     OW74050   9.090   0.434   4.471
23068SOL    HW174051   9.068   0.482   4.391
23068SOL    HW274052   9.184   0.419   4.466
23069SOL     OW74053   7.657   1.746   4.169
23069SOL    HW174054   7.659   1.814   4.236
23069SOL    HW274055   7.744   1.749   4.129
23070SOL     OW74056   8.642   1.321   5.426
23070SOL    HW174057   8.718   1.275   5.391
23070SOL    HW274058   8.571   1.258   5.422
23071SOL     OW74059   7.679   1.468   4.223
23071SOL    HW174060   7.659   1.561   4.228
23071SOL    HW274061   7.619   1.427   4.285
23072SOL     OW74062   7.709   1.042   4.625
23072SOL    HW174063   7.702   0.998   4.710
23072SOL    HW274064   7.682   1.132   4.643
23073SOL     OW74065   8.061   1.778   5.165
23073SOL    HW174066   7.969   1.777   5.190
23073SOL    HW274067   8.085   1.871   5.162
23074SOL     OW74068   7.996   1.003   3.871
23074SOL    HW174069   8.054   1.036   3.803
23074SOL    HW274070   8.039   1.028   3.953
23075SOL     OW74071   9.033   0.129   5.169
23075SOL    HW174072   9.097   0.117   5.098
23075SOL    HW274073   9.026   0.224   5.178
23076SOL     OW74074   7.573   0.593   4.313
23076SOL    HW174075   7.665   0.569   4.298
23076SOL    HW274076   7.577   0.665   4.377
23077SOL     OW74077   9.301   1.748   4.055
23077SOL    HW174078   9.382   1.733   4.105
23077SOL    HW274079   9.307   1.839   4.027
23078SOL     OW74080   7.523   1.571   3.835
23078SOL    HW174081   7.503   1.480   3.858
23078SOL    HW274082   7.478   1.623   3.902
23079SOL     OW74083   9.125   0.820   4.333
23079SOL    HW174084   9.172   0.891   4.377
23079SOL    HW274085   9.173   0.808   4.250
23080SOL     OW74086   9.137   1.111   4.194
23080SOL    HW174087   9.203   1.111   4.124
23080SOL    HW274088   9.182   1.070   4.268
23081SOL     OW74089   7.647   0.755   5.280
23081SOL    HW174090   7.741   0.764   5.294
23081SOL    HW274091   7.609   0.833   5.322
23082SOL     OW74092   8.060   1.392   4.438
23082SOL    HW174093   8.016   1.308   4.453
23082SOL    HW274094   8.040   1.413   4.346
23083SOL     OW74095   8.709   1.218   5.150
23083SOL    HW174096   8.718   1.149   5.085
23083SOL    HW274097   8.789   1.213   5.203
23084SOL     OW74098   8.296   0.021   4.259
23084SOL    HW174099   8.328   0.106   4.230
23084SOL    HW274100   8.201   0.024   4.244
23085SOL     OW74101   7.633   0.975   4.890
23085SOL    HW174102   7.700   0.910   4.915
23085SOL    HW274103   7.611   1.020   4.971
23086SOL     OW74104   8.969   1.015   3.959
23086SOL    HW174105   8.893   0.960   3.975
23086SOL    HW274106   9.015   1.019   4.043
23087SOL     OW74107   8.601   1.844   5.316
23087SOL    HW174108   8.662   1.906   5.277
23087SOL    HW274109   8.637   1.758   5.294
23088SOL     OW74110   7.772   0.250   5.553
23088SOL    HW174111   7.824   0.317   5.597
23088SOL    HW274112   7.683   0.261   5.588
23089SOL     OW74113   8.804   1.514   4.584
23089SOL    HW174114   8.802   1.513   4.679
23089SOL    HW274115   8.828   1.425   4.559
23090SOL     OW74116   9.090   1.769   4.306
23090SOL    HW174117   9.060   1.753   4.217
23090SOL    HW274118   9.163   1.709   4.318
23091SOL     OW74119   8.085   0.701   3.972
23091SOL    HW174120   8.118   0.776   3.923
23091SOL    HW274121   8.020   0.738   4.032
23092SOL     OW74122   8.720   0.375   4.672
23092SOL    HW174123   8.636   0.330   4.673
23092SOL    HW274124   8.778   0.319   4.724
23093SOL     OW74125   9.027   1.691   4.042
23093SOL    HW174126   9.122   1.696   4.032
23093SOL    HW274127   8.994   1.679   3.954
23094SOL     OW74128   8.201   0.629   5.130
23094SOL    HW174129   8.194   0.598   5.220
23094SOL    HW274130   8.166   0.558   5.076
23095SOL     OW74131   8.825   0.489   5.395
23095SOL    HW174132   8.828   0.533   5.480
23095SOL    HW274133   8.877   0.410   5.407
23096SOL     OW74134   8.402   0.876   5.327
23096SOL    HW174135   8.459   0.809   5.289
23096SOL    HW274136   8.353   0.911   5.252
23097SOL     OW74137   8.449   0.395   4.948
23097SOL    HW174138   8.384   0.334   4.983
23097SOL    HW274139   8.443   0.384   4.853
23098SOL     OW74140   8.511   0.759   4.153
23098SOL    HW174141   8.538   0.755   4.244
23098SOL    HW274142   8.451   0.685   4.142
23099SOL     OW74143   7.562   0.813   4.489
23099SOL    HW174144   7.628   0.877   4.516
23099SOL    HW274145   7.482   0.843   4.531
23100SOL     OW74146   7.533   1.827   5.392
23100SOL    HW174147   7.554   1.822   5.485
23100SOL    HW274148   7.512   1.737   5.367
23101SOL     OW74149   8.383   0.392   3.910
23101SOL    HW174150   8.401   0.475   3.867
23101SOL    HW274151   8.450   0.333   3.877
23102SOL     OW74152   9.108   0.552   5.574
23102SOL    HW174153   9.092   0.635   5.529
23102SOL    HW274154   9.143   0.495   5.506
23103SOL     OW74155   8.859   1.142   4.241
23103SOL    HW174156   8.949   1.141   4.208
23103SOL    HW274157   8.815   1.209   4.188
23104SOL     OW74158   7.931   0.269   4.667
23104SOL    HW174159   7.976   0.239   4.746
23104SOL    HW274160   8.002   0.289   4.606
23105SOL     OW74161   8.452   1.458   4.188
23105SOL    HW174162   8.413   1.535   4.146
23105SOL    HW274163   8.435   1.471   4.282
23106SOL     OW74164   7.793   1.844   4.586
23106SOL    HW174165   7.840   1.761   4.582
23106SOL    HW274166   7.859   1.908   4.613
23107SOL     OW74167   8.652   1.559   5.262
23107SOL    HW174168   8.648   1.475   5.307
23107SOL    HW274169   8.579   1.558   5.201
23108SOL     OW74170   7.733   0.950   3.977
23108SOL    HW174171   7.816   0.982   3.943
23108SOL    HW274172   7.713   0.873   3.924
23109SOL     OW74173   8.912   0.806   4.508
23109SOL    HW174174   8.919   0.726   4.561
23109SOL    HW274175   8.988   0.803   4.450
23110SOL     OW74176   8.572   1.749   3.956
23110SOL    HW174177   8.490   1.719   3.996
23110SOL    HW274178   8.602   1.675   3.903
23111SOL     OW74179   7.665   0.239   5.286
23111SOL    HW174180   7.599   0.307   5.302
23111SOL    HW274181   7.695   0.213   5.373
23112SOL     OW74182   9.088   1.400   3.820
23112SOL    HW174183   9.070   1.469   3.756
23112SOL    HW274184   9.025   1.331   3.800
23113SOL     OW74185   7.929   1.767   4.078
23113SOL    HW174186   7.961   1.714   4.152
23113SOL    HW274187   7.974   1.730   4.002
23114SOL     OW74188   8.793   0.123   4.086
23114SOL    HW174189   8.802   0.110   3.991
23114SOL    HW274190   8.867   0.179   4.109
23115SOL     OW74191   7.687   1.796   4.996
23115SOL    HW174192   7.723   1.775   5.082
23115SOL    HW274193   7.723   1.729   4.938
23116SOL     OW74194   8.383   1.715   4.591
23116SOL    HW174195   8.447   1.655   4.629
23116SOL    HW274196   8.343   1.665   4.519
23117SOL     OW74197   7.853   0.719   4.133
23117SOL    HW174198   7.839   0.625   4.150
23117SOL    HW274199   7.784   0.742   4.071
23118SOL     OW74200   8.960   0.254   5.445
23118SOL    HW174201   8.942   0.256   5.539
23118SOL    HW274202   8.951   0.162   5.421
23119SOL     OW74203   8.220   0.249   5.527
23119SOL    HW174204   8.291   0.185   5.521
23119SOL    HW274205   8.240   0.300   5.605
23120SOL     OW74206   8.320   1.523   4.906
23120SOL    HW174207   8.303   1.477   4.824
23120SOL    HW274208   8.390   1.473   4.947
23121SOL     OW74209   8.792   0.590   5.143
23121SOL    HW174210   8.820   0.564   5.231
23121SOL    HW274211   8.826   0.678   5.132
23122SOL     OW74212   8.270   1.376   4.666
23122SOL    HW174213   8.357   1.380   4.628
23122SOL    HW274214   8.211   1.383   4.591
23123SOL     OW74215   8.377   0.486   4.620
23123SOL    HW174216   8.354   0.482   4.527
23123SOL    HW274217   8.419   0.402   4.638
23124SOL     OW74218   8.037   0.070   4.192
23124SOL    HW174219   7.964   0.047   4.248
23124SOL    HW274220   8.004   0.142   4.137
23125SOL     OW74221   8.900   1.206   3.764
23125SOL    HW174222   8.930   1.135   3.821
23125SOL    HW274223   8.813   1.228   3.799
23126SOL     OW74224   7.745   0.090   3.855
23126SOL    HW174225   7.751   0.122   3.765
23126SOL    HW274226   7.835   0.072   3.881
23127SOL     OW74227   8.368   0.263   4.154
23127SOL    HW174228   8.355   0.318   4.077
23127SOL    HW274229   8.460   0.276   4.179
23128SOL     OW74230   8.533   0.671   5.190
23128SOL    HW174231   8.502   0.587   5.222
23128SOL    HW274232   8.624   0.656   5.165
23129SOL     OW74233   7.909   1.152   4.448
23129SOL    HW174234   7.855   1.108   4.514
23129SOL    HW274235   7.860   1.143   4.366
23130SOL     OW74236   8.781   1.798   4.378
23130SOL    HW174237   8.812   1.864   4.316
23130SOL    HW274238   8.711   1.841   4.427
23131SOL     OW74239   8.501   0.623   3.816
23131SOL    HW174240   8.555   0.690   3.774
23131SOL    HW274241   8.558   0.584   3.883
23132SOL     OW74242   7.568   0.565   5.094
23132SOL    HW174243   7.660   0.546   5.074
23132SOL    HW274244   7.573   0.638   5.157
23133SOL     OW74245   8.038   0.199   4.910
23133SOL    HW174246   8.104   0.144   4.951
23133SOL    HW274247   7.961   0.191   4.967
23134SOL     OW74248   8.292   0.451   4.359
23134SOL    HW174249   8.290   0.520   4.293
23134SOL    HW274250   8.314   0.372   4.311
23135SOL     OW74251   8.414   0.038   4.519
23135SOL    HW174252   8.365   0.032   4.437
23135SOL    HW274253   8.485   9.975   4.509
23136SOL     OW74254   8.852   1.252   4.532
23136SOL    HW174255   8.810   1.173   4.499
23136SOL    HW274256   8.945   1.240   4.513
23137SOL     OW74257   8.879   0.605   4.711
23137SOL    HW174258   8.831   0.524   4.697
23137SOL    HW274259   8.950   0.580   4.771
23138SOL     OW74260   9.272   0.775   4.108
23138SOL    HW174261   9.357   0.816   4.123
23138SOL    HW274262   9.288   0.708   4.042
23139SOL     OW74263   7.942   1.439   3.904
23139SOL    HW174264   7.866   1.385   3.926
23139SOL    HW274265   7.993   1.385   3.844
23140SOL     OW74266   9.115   1.240   4.444
23140SOL    HW174267   9.176   1.176   4.480
23140SOL    HW274268   9.108   1.218   4.351
23141SOL     OW74269   8.820   0.539   3.666
23141SOL    HW174270   8.858   0.487   3.737
23141SOL    HW274271   8.875   0.520   3.590
23142SOL     OW74272   7.951   0.272   4.019
23142SOL    HW174273   7.979   0.213   3.949
23142SOL    HW274274   7.937   0.356   3.975
23143SOL     OW74275   9.160   1.255   5.287
23143SOL    HW174276   9.240   1.210   5.259
23143SOL    HW274277   9.188   1.344   5.308
23144SOL     OW74278   8.500   1.364   5.045
23144SOL    HW174279   8.423   1.323   5.084
23144SOL    HW274280   8.574   1.322   5.089
23145SOL     OW74281   9.053   1.624   5.406
23145SOL    HW174282   9.039   1.667   5.322
23145SOL    HW274283   9.134   1.575   5.395
23146SOL     OW74284   8.611   1.256   4.818
23146SOL    HW174285   8.559   1.300   4.886
23146SOL    HW274286   8.576   1.291   4.735
23147SOL     OW74287   9.107   1.026   4.811
23147SOL    HW174288   9.076   1.115   4.826
23147SOL    HW274289   9.171   1.034   4.740
23148SOL     OW74290   8.319   0.161   5.063
23148SOL    HW174291   8.352   0.100   4.997
23148SOL    HW274292   8.393   0.176   5.121
23149SOL     OW74293   8.433   1.127   5.444
23149SOL    HW174294   8.341   1.147   5.461
23149SOL    HW274295   8.431   1.045   5.395
23150SOL     OW74296   8.155   1.066   4.093
23150SOL    HW174297   8.143   1.038   4.183
23150SOL    HW274298   8.227   1.012   4.060
23151SOL     OW74299   7.838   0.806   4.973
23151SOL    HW174300   7.903   0.844   5.032
23151SOL    HW274301   7.823   0.718   5.007
23152SOL     OW74302   8.709   0.352   5.030
23152SOL    HW174303   8.747   0.432   5.065
23152SOL    HW274304   8.623   0.379   4.998
23153SOL     OW74305   7.520   1.552   5.054
23153SOL    HW174306   7.509   1.645   5.033
23153SOL    HW274307   7.615   1.538   5.052
23154SOL     OW74308   7.765   1.116   4.215
23154SOL    HW174309   7.759   1.186   4.150
23154SOL    HW274310   7.759   1.035   4.165
23155SOL     OW74311   7.979   0.520   4.517
23155SOL    HW174312   7.980   0.597   4.459
23155SOL    HW274313   8.051   0.536   4.579
23156SOL     OW74314   8.704   1.353   4.130
23156SOL    HW174315   8.760   1.425   4.159
23156SOL    HW274316   8.616   1.379   4.155
23157SOL     OW74317   8.780   1.479   4.856
23157SOL    HW174318   8.829   1.482   4.938
23157SOL    HW274319   8.749   1.389   4.851
23158SOL     OW74320   9.057   0.561   4.221
23158SOL    HW174321   9.065   0.651   4.251
23158SOL    HW274322   9.103   0.559   4.137
23159SOL     OW74323   7.786   1.526   5.001
23159SOL    HW174324   7.775   1.513   4.907
23159SOL    HW274325   7.881   1.533   5.013
23160SOL     OW74326   7.916   0.746   5.352
23160SOL    HW174327   7.960   0.796   5.284
23160SOL    HW274328   7.980   0.680   5.380
23161SOL     OW74329   9.060   0.788   5.443
23161SOL    HW174330   8.973   0.825   5.432
23161SOL    HW274331   9.110   0.820   5.367
23162SOL     OW74332   8.413   0.042   5.504
23162SOL    HW174333   8.472   0.106   5.545
23162SOL    HW274334   8.463   0.008   5.430
23163SOL     OW74335   7.900   0.051   5.412
23163SOL    HW174336   7.972   0.094   5.366
23163SOL    HW274337   7.866   0.117   5.472
23164SOL     OW74338   8.055   0.871   4.766
23164SOL    HW174339   8.094   0.958   4.757
23164SOL    HW274340   8.005   0.875   4.848
23165SOL     OW74341   8.773   0.853   4.752
23165SOL    HW174342   8.816   0.886   4.673
23165SOL    HW274343   8.797   0.761   4.756
23166SOL     OW74344   8.671   0.503   3.991
23166SOL    HW174345   8.654   0.446   4.065
23166SOL    HW274346   8.764   0.491   3.972
23167SOL     OW74347   7.770   0.191   5.027
23167SOL    HW174348   7.730   0.205   5.113
23167SOL    HW274349   7.775   0.096   5.017
23168SOL     OW74350   7.480   1.287   4.975
23168SOL    HW174351   7.507   1.214   5.031
23168SOL    HW274352   7.505   1.365   5.024
23169SOL     OW74353   8.145   0.604   4.721
23169SOL    HW174354   8.235   0.588   4.692
23169SOL    HW274355   8.139   0.699   4.731
23170SOL     OW74356   9.190   0.973   5.603
23170SOL    HW174357   9.148   0.903   5.553
23170SOL    HW274358   9.132   0.988   5.678
23171SOL     OW74359   7.843   0.008   4.384
23171SOL    HW174360   7.803   0.049   4.460
23171SOL    HW274361   7.900   9.940   4.420
23172SOL     OW74362   8.989   0.301   4.147
23172SOL    HW174363   9.072   0.258   4.170
23172SOL    HW274364   9.000   0.391   4.176
23173SOL     OW74365   8.419   0.756   4.676
23173SOL    HW174366   8.426   0.767   4.770
23173SOL    HW274367   8.426   0.661   4.662
23174SOL     OW74368   8.419   1.599   5.473
23174SOL    HW174369   8.332   1.628   5.447
23174SOL    HW274370   8.474   1.615   5.396
23175SOL     OW74371   9.288   1.501   5.321
23175SOL    HW174372   9.322   1.510   5.232
23175SOL    HW274373   9.362   1.523   5.377
23176SOL     OW74374   7.801   0.843   5.589
23176SOL    HW174375   7.840   0.931   5.596
23176SOL    HW274376   7.833   0.810   5.505
23177SOL     OW74377   8.945   0.372   3.856
23177SOL    HW174378   8.985   0.363   3.943
23177SOL    HW274379   9.020   0.372   3.796
23178SOL     OW74380   8.701   0.788   3.720
23178SOL    HW174381   8.751   0.708   3.705
23178SOL    HW274382   8.727   0.847   3.650
23179SOL     OW74383   8.531   1.393   4.576
23179SOL    HW174384   8.532   1.311   4.527
23179SOL    HW274385   8.618   1.431   4.561
23180SOL     OW74386   7.825   0.686   4.721
23180SOL    HW174387   7.890   0.736   4.672
23180SOL    HW274388   7.818   0.730   4.805
23181SOL     OW74389   8.559   0.424   5.348
23181SOL    HW174390   8.525   0.447   5.435
23181SOL    HW274391   8.652   0.445   5.353
23182SOL     OW74392   8.556   0.189   5.203
23182SOL    HW174393   8.549   0.262   5.265
23182SOL    HW274394   8.621   0.218   5.139
23183SOL     OW74395   7.449   1.302   3.892
23183SOL    HW174396   7.360   1.311   3.860
23183SOL    HW274397   7.448   1.221   3.944
23184SOL     OW74398   7.544   1.790   4.690
23184SOL    HW174399   7.529   1.708   4.644
23184SOL    HW274400   7.634   1.814   4.669
23185SOL     OW74401   7.930   1.594   4.582
23185SOL    HW174402   8.002   1.656   4.595
23185SOL    HW274403   7.969   1.521   4.535
23186SOL     OW74404   8.390   0.762   4.959
23186SOL    HW174405   8.468   0.745   5.011
23186SOL    HW274406   8.320   0.716   5.006
23187SOL     OW74407   7.459   0.533   4.846
23187SOL    HW174408   7.526   0.475   4.811
23187SOL    HW274409   7.497   0.567   4.927
23188SOL     OW74410   7.677   0.519   5.419
23188SOL    HW174411   7.763   0.491   5.389
23188SOL    HW274412   7.658   0.598   5.367
23189SOL     OW74413   8.827   0.929   5.385
23189SOL    HW174414   8.850   1.021   5.377
23189SOL    HW274415   8.823   0.898   5.295
23190SOL     OW74416   8.297   0.579   4.107
23190SOL    HW174417   8.328   0.519   4.040
23190SOL    HW274418   8.225   0.626   4.066
23191SOL     OW74419   9.080   0.556   4.899
23191SOL    HW174420   9.079   0.497   4.974
23191SOL    HW274421   9.171   0.555   4.869
23192SOL     OW74422   8.074   0.469   4.946
23192SOL    HW174423   8.078   0.376   4.926
23192SOL    HW274424   8.105   0.512   4.867
23193SOL     OW74425   8.399   1.657   5.153
23193SOL    HW174426   8.368   1.627   5.068
23193SOL    HW274427   8.390   1.753   5.149
23194SOL     OW74428   7.903   0.506   3.886
23194SOL    HW174429   7.979   0.562   3.903
23194SOL    HW274430   7.828   0.565   3.888
23195SOL     OW74431   7.612   1.111   5.135
23195SOL    HW174432   7.596   1.119   5.229
23195SOL    HW274433   7.697   1.154   5.122
23196SOL     OW74434   8.713   1.033   4.944
23196SOL    HW174435   8.734   0.967   4.878
23196SOL    HW274436   8.682   1.108   4.893
23197SOL     OW74437   8.742   0.859   3.996
23197SOL    HW174438   8.675   0.820   4.052
23197SOL    HW274439   8.729   0.817   3.911
23198SOL     OW74440   9.169   1.705   4.864
23198SOL    HW174441   9.247   1.741   4.822
23198SOL    HW274442   9.155   1.621   4.820
23199SOL     OW74443   8.703   1.741   4.806
23199SOL    HW174444   8.785   1.775   4.772
23199SOL    HW274445   8.722   1.651   4.832
23200SOL     OW74446   7.599   1.277   4.722
23200SOL    HW174447   7.572   1.268   4.813
23200SOL    HW274448   7.517   1.270   4.672
23201SOL     OW74449   8.165   1.655   5.393
23201SOL    HW174450   8.077   1.648   5.431
23201SOL    HW274451   8.150   1.698   5.309
23202SOL     OW74452   9.222   0.169   4.225
23202SOL    HW174453   9.300   0.208   4.187
23202SOL    HW274454   9.254   0.091   4.271
23203SOL     OW74455   8.850   1.572   4.219
23203SOL    HW174456   8.904   1.609   4.149
23203SOL    HW274457   8.806   1.647   4.258
23204SOL     OW74458   7.614   1.807   5.654
23204SOL    HW174459   7.634   1.716   5.677
23204SOL    HW274460   7.602   1.851   5.739
23205SOL     OW74461   8.730   0.985   4.418
23205SOL    HW174462   8.798   0.925   4.448
23205SOL    HW274463   8.770   1.030   4.344
23206SOL     OW74464   8.257   1.262   5.115
23206SOL    HW174465   8.221   1.302   5.194
23206SOL    HW274466   8.185   1.263   5.053
23207SOL     OW74467   8.096   1.669   3.882
23207SOL    HW174468   8.121   1.687   3.792
23207SOL    HW274469   8.054   1.584   3.879
23208SOL     OW74470   9.101   1.701   5.134
23208SOL    HW174471   9.115   1.706   5.040
23208SOL    HW274472   9.182   1.733   5.173
23209SOL     OW74473   9.273   0.073   4.650
23209SOL    HW174474   9.323   0.076   4.568
23209SOL    HW274475   9.192   0.120   4.630
23210SOL     OW74476   7.655   0.357   4.507
23210SOL    HW174477   7.589   0.363   4.438
23210SOL    HW274478   7.661   0.263   4.526
23211SOL     OW74479   8.654   1.539   3.792
23211SOL    HW174480   8.664   1.447   3.818
23211SOL    HW274481   8.580   1.538   3.730
23212SOL     OW74482   8.286   0.989   5.106
23212SOL    HW174483   8.334   0.954   5.031
23212SOL    HW274484   8.295   1.084   5.098
23213SOL     OW74485   8.356   0.917   3.987
23213SOL    HW174486   8.417   0.957   3.926
23213SOL    HW274487   8.410   0.864   4.045
23214SOL     OW74488   8.906   1.681   3.783
23214SOL    HW174489   8.827   1.627   3.773
23214SOL    HW274490   8.951   1.675   3.699
23215SOL     OW74491   7.838   1.270   5.168
23215SOL    HW174492   7.835   1.364   5.185
23215SOL    HW274493   7.811   1.230   5.251
23216SOL     OW74494   9.038   1.293   4.944
23216SOL    HW174495   9.130   1.290   4.971
23216SOL    HW274496   8.994   1.343   5.013
23217SOL     OW74497   8.508   1.147   4.462
23217SOL    HW174498   8.438   1.087   4.488
23217SOL    HW274499   8.582   1.091   4.442
23218SOL     OW74500   8.475   0.231   4.704
23218SOL    HW174501   8.454   0.175   4.629
23218SOL    HW274502   8.498   0.170   4.774
23219SOL     OW74503   8.043   1.484   4.173
23219SOL    HW174504   8.117   1.438   4.131
23219SOL    HW274505   7.970   1.473   4.112
23220SOL     OW74506   9.191   0.373   5.099
23220SOL    HW174507   9.271   0.425   5.094
23220SOL    HW274508   9.204   0.302   5.037
23221SOL     OW74509   7.722   1.309   4.011
23221SOL    HW174510   7.634   1.297   3.975
23221SOL    HW274511   7.710   1.370   4.084
23222SOL     OW74512   7.549   0.980   5.404
23222SOL    HW174513   7.500   0.981   5.486
23222SOL    HW274514   7.612   1.052   5.412
23223SOL     OW74515   8.103   0.210   5.277
23223SOL    HW174516   8.171   0.196   5.212
23223SOL    HW274517   8.151   0.228   5.358
23224SOL     OW74518   7.494   0.372   3.770
23224SOL    HW174519   7.434   0.361   3.696
23224SOL    HW274520   7.568   0.421   3.734
23225SOL     OW74521   8.845   0.862   5.119
23225SOL    HW174522   8.794   0.918   5.061
23225SOL    HW274523   8.930   0.854   5.076
23226SOL     OW74524   7.523   0.189   3.979
23226SOL    HW174525   7.502   0.254   3.912
23226SOL    HW274526   7.601   0.144   3.945
23227SOL     OW74527   8.655   1.270   3.872
23227SOL    HW174528   8.609   1.186   3.867
23227SOL    HW274529   8.670   1.283   3.966
23228SOL     OW74530   8.051   0.855   5.136
23228SOL    HW174531   8.117   0.924   5.134
23228SOL    HW274532   8.102   0.773   5.130
23229SOL     OW74533   8.959   1.802   4.697
23229SOL    HW174534   8.979   1.888   4.661
23229SOL    HW274535   9.023   1.789   4.767
23230SOL     OW74536   8.143   0.569   5.396
23230SOL    HW174537   8.206   0.617   5.450
23230SOL    HW274538   8.123   0.490   5.448
23231SOL     OW74539   8.898   1.199   5.365
23231SOL    HW174540   8.905   1.208   5.460
23231SOL    HW274541   8.986   1.217   5.333
23232SOL     OW74542   7.798   1.745   5.241
23232SOL    HW174543   7.768   1.787   5.322
23232SOL    HW274544   7.820   1.656   5.267
23233SOL     OW74545   9.082   0.822   4.987
23233SOL    HW174546   9.079   0.738   4.942
23233SOL    HW274547   9.090   0.887   4.917
23234SOL     OW74548   8.626   0.319   4.200
23234SOL    HW174549   8.701   0.261   4.187
23234SOL    HW274550   8.648   0.371   4.277
23235SOL     OW74551   7.977   0.751   4.376
23235SOL    HW174552   8.035   0.828   4.375
23235SOL    HW274553   7.934   0.753   4.291
23236SOL     OW74554   9.200   0.365   5.383
23236SOL    HW174555   9.204   0.375   5.288
23236SOL    HW274556   9.118   0.319   5.399
23237SOL     OW74557   9.168   0.913   5.229
23237SOL    HW174558   9.182   1.007   5.214
23237SOL    HW274559   9.145   0.878   5.142
23238SOL     OW74560   8.209   1.391   3.781
23238SOL    HW174561   8.232   1.380   3.873
23238SOL    HW274562   8.286   1.431   3.741
23239SOL     OW74563   8.109   1.798   4.602
23239SOL    HW174564   8.088   1.887   4.629
23239SOL    HW274565   8.203   1.789   4.619
23240SOL     OW74566   8.305   0.985   4.568
23240SOL    HW174567   8.345   0.904   4.600
23240SOL    HW274568   8.266   1.025   4.646
23241SOL     OW74569   8.537   1.020   3.805
23241SOL    HW174570   8.501   1.051   3.722
23241SOL    HW274571   8.603   0.955   3.781
23242SOL     OW74572   9.352   1.523   4.546
23242SOL    HW174573   9.266   1.519   4.505
23242SOL    HW274574   9.359   1.441   4.595
23243SOL     OW74575   7.511   1.299   4.373
23243SOL    HW174576   7.457   1.280   4.449
23243SOL    HW274577   7.566   1.221   4.363
23244SOL     OW74578   8.123   1.387   5.319
23244SOL    HW174579   8.032   1.412   5.301
23244SOL    HW274580   8.166   1.470   5.343
23245SOL     OW74581   9.202   0.144   4.931
23245SOL    HW174582   9.163   0.057   4.920
23245SOL    HW274583   9.253   0.158   4.851
23246SOL     OW74584   7.830   0.456   4.224
23246SOL    HW174585   7.858   0.389   4.161
23246SOL    HW274586   7.893   0.448   4.296
23247SOL     OW74587   9.116   1.465   4.740
23247SOL    HW174588   9.063   1.410   4.798
23247SOL    HW274589   9.191   1.409   4.717
23248SOL     OW74590   7.840   0.546   5.062
23248SOL    HW174591   7.857   0.507   5.148
23248SOL    HW274592   7.918   0.524   5.010
23249SOL     OW74593   8.264   1.581   4.379
23249SOL    HW174594   8.246   1.602   4.287
23249SOL    HW274595   8.196   1.517   4.402
23250SOL     OW74596   8.866   0.220   4.845
23250SOL    HW174597   8.875   0.129   4.874
23250SOL    HW274598   8.826   0.265   4.919
23251SOL     OW74599   8.532   0.025   4.890
23251SOL    HW174600   8.504   9.934   4.900
23251SOL    HW274601   8.627   0.021   4.885
23252SOL     OW74602   8.240   1.331   4.052
23252SOL    HW174603   8.216   1.239   4.065
23252SOL    HW274604   8.325   1.341   4.095
23253SOL     OW74605   8.063   1.553   5.004
23253SOL    HW174606   8.066   1.629   5.063
23253SOL    HW274607   8.151   1.549   4.966
23254SOL     OW74608   8.806   0.099   3.811
23254SOL    HW174609   8.859   0.170   3.775
23254SOL    HW274610   8.833   0.021   3.763
23255SOL     OW74611   8.662   0.478   4.416
23255SOL    HW174612   8.642   0.571   4.419
23255SOL    HW274613   8.698   0.458   4.502
23256SOL     OW74614   9.028   0.206   4.612
23256SOL    HW174615   8.986   0.231   4.695
23256SOL    HW274616   9.042   0.289   4.566
23257SOL     OW74617   7.487   1.072   4.037
23257SOL    HW174618   7.573   1.033   4.022
23257SOL    HW274619   7.426   0.999   4.029
23258SOL     OW74620   8.301   1.675   4.085
23258SOL    HW174621   8.242   1.659   4.011
23258SOL    HW274622   8.271   1.759   4.121
23259SOL     OW74623   7.619   0.598   5.672
23259SOL    HW174624   7.642   0.691   5.673
23259SOL    HW274625   7.635   0.571   5.582
23260SOL     OW74626   7.627   0.366   6.663
23260SOL    HW174627   7.572   0.413   6.726
23260SOL    HW274628   7.669   0.297   6.715
23261SOL     OW74629   7.436   0.395   6.240
23261SOL    HW174630   7.347   0.412   6.269
23261SOL    HW274631   7.426   0.329   6.171
23262SOL     OW74632   8.005   1.330   6.800
23262SOL    HW174633   7.941   1.332   6.729
23262SOL    HW274634   8.030   1.422   6.812
23263SOL     OW74635   9.048   1.527   6.298
23263SOL    HW174636   8.995   1.502   6.374
23263SOL    HW274637   8.985   1.534   6.226
23264SOL     OW74638   8.618   0.697   6.252
23264SOL    HW174639   8.582   0.786   6.251
23264SOL    HW274640   8.542   0.641   6.233
23265SOL     OW74641   9.268   0.562   5.796
23265SOL    HW174642   9.210   0.566   5.720
23265SOL    HW274643   9.264   0.471   5.824
23266SOL     OW74644   8.236   1.159   6.677
23266SOL    HW174645   8.163   1.197   6.726
23266SOL    HW274646   8.267   1.231   6.622
23267SOL     OW74647   8.323   0.731   7.408
23267SOL    HW174648   8.313   0.791   7.482
23267SOL    HW274649   8.351   0.787   7.336
23268SOL     OW74650   8.141   1.002   6.199
23268SOL    HW174651   8.223   1.025   6.241
23268SOL    HW274652   8.077   1.065   6.234
23269SOL     OW74653   8.139   1.194   7.428
23269SOL    HW174654   8.191   1.267   7.461
23269SOL    HW274655   8.078   1.234   7.366
23270SOL     OW74656   7.798   1.408   6.622
23270SOL    HW174657   7.717   1.377   6.582
23270SOL    HW274658   7.838   1.462   6.554
23271SOL     OW74659   8.933   1.482   6.986
23271SOL    HW174660   8.983   1.563   6.973
23271SOL    HW274661   8.928   1.471   7.081
23272SOL     OW74662   7.890   0.432   7.190
23272SOL    HW174663   7.960   0.463   7.247
23272SOL    HW274664   7.933   0.411   7.108
23273SOL     OW74665   9.039   0.467   6.343
23273SOL    HW174666   8.957   0.447   6.298
23273SOL    HW274667   9.052   0.561   6.328
23274SOL     OW74668   7.713   1.100   6.437
23274SOL    HW174669   7.718   1.004   6.434
23274SOL    HW274670   7.749   1.122   6.523
23275SOL     OW74671   7.986   1.841   6.983
23275SOL    HW174672   7.933   1.797   7.049
23275SOL    HW274673   8.027   1.914   7.028
23276SOL     OW74674   7.995   1.039   5.692
23276SOL    HW174675   8.051   1.083   5.627
23276SOL    HW274676   8.052   1.030   5.769
23277SOL     OW74677   8.979   0.126   7.006
23277SOL    HW174678   9.060   0.142   6.957
23277SOL    HW274679   8.991   0.174   7.088
23278SOL     OW74680   7.488   0.665   6.170
23278SOL    HW174681   7.486   0.572   6.192
23278SOL    HW274682   7.508   0.710   6.252
23279SOL     OW74683   9.308   1.755   5.944
23279SOL    HW174684   9.385   1.728   5.994
23279SOL    HW274685   9.319   1.850   5.932
23280SOL     OW74686   7.380   1.594   5.836
23280SOL    HW174687   7.381   1.499   5.844
23280SOL    HW274688   7.468   1.616   5.804
23281SOL     OW74689   9.157   0.936   6.250
23281SOL    HW174690   9.247   0.906   6.235
23281SOL    HW274691   9.135   0.985   6.171
23282SOL     OW74692   9.110   1.099   6.028
23282SOL    HW174693   9.196   1.097   5.985
23282SOL    HW274694   9.118   1.168   6.093
23283SOL     OW74695   8.057   1.362   6.359
23283SOL    HW174696   8.008   1.284   6.332
23283SOL    HW274697   8.124   1.372   6.292
23284SOL     OW74698   8.695   1.226   7.029
23284SOL    HW174699   8.771   1.187   6.987
23284SOL    HW274700   8.725   1.246   7.118
23285SOL     OW74701   8.230   0.064   6.165
23285SOL    HW174702   8.254   0.156   6.158
23285SOL    HW274703   8.136   0.062   6.146
23286SOL     OW74704   8.978   1.008   5.804
23286SOL    HW174705   8.908   0.953   5.837
23286SOL    HW274706   9.024   1.038   5.882
23287SOL     OW74707   7.800   0.239   7.443
23287SOL    HW174708   7.843   0.317   7.479
23287SOL    HW274709   7.708   0.262   7.438
23288SOL     OW74710   8.894   1.438   6.512
23288SOL    HW174711   8.845   1.446   6.594
23288SOL    HW274712   8.891   1.345   6.491
23289SOL     OW74713   9.069   1.796   6.174
23289SOL    HW174714   9.068   1.756   6.087
23289SOL    HW274715   9.084   1.723   6.234
23290SOL     OW74716   8.046   0.699   5.675
23290SOL    HW174717   7.984   0.771   5.671
23290SOL    HW274718   8.058   0.683   5.769
23291SOL     OW74719   8.739   0.369   6.530
23291SOL    HW174720   8.647   0.343   6.529
23291SOL    HW274721   8.782   0.302   6.583
23292SOL     OW74722   9.046   1.678   5.916
23292SOL    HW174723   9.140   1.697   5.912
23292SOL    HW274724   9.021   1.664   5.824
23293SOL     OW74725   8.299   0.553   7.060
23293SOL    HW174726   8.229   0.564   7.125
23293SOL    HW274727   8.253   0.523   6.981
23294SOL     OW74728   8.842   0.499   7.275
23294SOL    HW174729   8.849   0.545   7.360
23294SOL    HW274730   8.900   0.423   7.284
23295SOL     OW74731   8.403   0.893   7.192
23295SOL    HW174732   8.466   0.833   7.151
23295SOL    HW274733   8.349   0.924   7.120
23296SOL     OW74734   8.479   0.453   6.780
23296SOL    HW174735   8.388   0.454   6.811
23296SOL    HW274736   8.478   0.507   6.701
23297SOL     OW74737   8.444   0.680   5.965
23297SOL    HW174738   8.445   0.645   6.054
23297SOL    HW274739   8.361   0.648   5.929
23298SOL     OW74740   7.501   0.846   6.387
23298SOL    HW174741   7.591   0.827   6.412
23298SOL    HW274742   7.479   0.926   6.434
23299SOL     OW74743   7.549   1.876   7.190
23299SOL    HW174744   7.556   1.865   7.285
23299SOL    HW274745   7.462   1.843   7.168
23300SOL     OW74746   8.255   0.341   5.799
23300SOL    HW174747   8.230   0.428   5.832
23300SOL    HW274748   8.327   0.314   5.856
23301SOL     OW74749   9.166   0.576   7.398
23301SOL    HW174750   9.133   0.661   7.368
23301SOL    HW274751   9.172   0.523   7.318
23302SOL     OW74752   7.914   0.207   6.574
23302SOL    HW174753   7.956   0.209   6.660
23302SOL    HW274754   7.937   0.291   6.534
23303SOL     OW74755   7.799   1.827   6.490
23303SOL    HW174756   7.840   1.743   6.470
23303SOL    HW274757   7.872   1.889   6.497
23304SOL     OW74758   9.258   1.052   6.491
23304SOL    HW174759   9.211   1.039   6.409
23304SOL    HW274760   9.189   1.057   6.558
23305SOL     OW74761   7.771   0.996   5.860
23305SOL    HW174762   7.840   1.020   5.799
23305SOL    HW274763   7.771   0.901   5.860
23306SOL     OW74764   8.986   0.742   6.328
23306SOL    HW174765   8.932   0.775   6.400
23306SOL    HW274766   9.048   0.812   6.310
23307SOL     OW74767   7.944   1.314   7.276
23307SOL    HW174768   7.913   1.286   7.190
23307SOL    HW274769   7.868   1.307   7.333
23308SOL     OW74770   8.634   1.699   5.837
23308SOL    HW174771   8.541   1.696   5.857
23308SOL    HW274772   8.646   1.630   5.771
23309SOL     OW74773   7.661   0.293   7.082
23309SOL    HW174774   7.614   0.374   7.063
23309SOL    HW274775   7.732   0.320   7.140
23310SOL     OW74776   9.082   1.389   5.691
23310SOL    HW174777   9.056   1.475   5.659
23310SOL    HW274778   9.009   1.331   5.667
23311SOL     OW74779   8.899   0.143   6.029
23311SOL    HW174780   8.870   0.101   5.948
23311SOL    HW274781   8.947   0.221   6.000
23312SOL     OW74782   7.677   1.787   6.733
23312SOL    HW174783   7.720   1.713   6.777
23312SOL    HW274784   7.728   1.802   6.654
23313SOL     OW74785   8.403   1.711   6.518
23313SOL    HW174786   8.492   1.678   6.506
23313SOL    HW274787   8.352   1.670   6.448
23314SOL     OW74788   8.964   0.234   7.273
23314SOL    HW174789   8.979   0.242   7.367
23314SOL    HW274790   8.884   0.182   7.267
23315SOL     OW74791   8.102   0.117   5.766
23315SOL    HW174792   8.164   0.188   5.786
23315SOL    HW274793   8.099   0.115   5.670
23316SOL     OW74794   8.191   0.250   7.347
23316SOL    HW174795   8.276   0.206   7.350
23316SOL    HW274796   8.143   0.216   7.422
23317SOL     OW74797   8.307   1.508   6.787
23317SOL    HW174798   8.300   1.485   6.694
23317SOL    HW274799   8.366   1.442   6.823
23318SOL     OW74800   8.798   0.600   7.023
23318SOL    HW174801   8.820   0.572   7.112
23318SOL    HW274802   8.822   0.693   7.020
23319SOL     OW74803   8.262   1.404   6.533
23319SOL    HW174804   8.326   1.403   6.463
23319SOL    HW274805   8.178   1.392   6.489
23320SOL     OW74806   8.428   0.534   6.477
23320SOL    HW174807   8.428   0.544   6.381
23320SOL    HW274808   8.444   0.441   6.491
23321SOL     OW74809   7.958   0.083   6.116
23321SOL    HW174810   7.876   0.067   6.162
23321SOL    HW274811   7.937   0.150   6.051
23322SOL     OW74812   8.877   1.209   5.645
23322SOL    HW174813   8.919   1.133   5.686
23322SOL    HW274814   8.803   1.229   5.702
23323SOL     OW74815   7.727   0.046   5.852
23323SOL    HW174816   7.785   0.121   5.864
23323SOL    HW274817   7.778   9.971   5.882
23324SOL     OW74818   8.443   0.255   5.989
23324SOL    HW174819   8.396   0.292   6.064
23324SOL    HW274820   8.533   0.284   6.000
23325SOL     OW74821   8.532   0.696   7.045
23325SOL    HW174822   8.464   0.630   7.059
23325SOL    HW274823   8.613   0.646   7.038
23326SOL     OW74824   8.654   1.619   6.445
23326SOL    HW174825   8.671   1.657   6.359
23326SOL    HW274826   8.726   1.557   6.459
23327SOL     OW74827   7.915   1.152   6.258
23327SOL    HW174828   7.847   1.128   6.322
23327SOL    HW274829   7.866   1.169   6.177
23328SOL     OW74830   8.493   0.501   5.605
23328SOL    HW174831   8.435   0.576   5.591
23328SOL    HW274832   8.542   0.523   5.684
23329SOL     OW74833   8.007   0.258   6.833
23329SOL    HW174834   8.045   0.229   6.916
23329SOL    HW274835   7.913   0.239   6.842
23330SOL     OW74836   8.411   0.050   6.379
23330SOL    HW174837   8.343   0.067   6.314
23330SOL    HW274838   8.480   0.006   6.331
23331SOL     OW74839   8.938   1.173   6.424
23331SOL    HW174840   8.881   1.117   6.372
23331SOL    HW274841   9.010   1.196   6.364
23332SOL     OW74842   8.960   0.528   6.602
23332SOL    HW174843   8.879   0.477   6.605
23332SOL    HW274844   8.995   0.511   6.514
23333SOL     OW74845   9.261   0.772   5.975
23333SOL    HW174846   9.326   0.740   6.038
23333SOL    HW274847   9.266   0.709   5.903
23334SOL     OW74848   9.149   1.256   6.254
23334SOL    HW174849   9.241   1.231   6.252
23334SOL    HW274850   9.150   1.352   6.248
23335SOL     OW74851   8.832   0.590   5.653
23335SOL    HW174852   8.783   0.549   5.725
23335SOL    HW274853   8.922   0.558   5.665
23336SOL     OW74854   7.905   0.254   5.900
23336SOL    HW174855   7.980   0.210   5.858
23336SOL    HW274856   7.896   0.336   5.851
23337SOL     OW74857   9.148   1.222   7.154
23337SOL    HW174858   9.202   1.301   7.155
23337SOL    HW274859   9.094   1.228   7.233
23338SOL     OW74860   8.462   1.311   6.921
23338SOL    HW174861   8.384   1.262   6.946
23338SOL    HW274862   8.535   1.262   6.960
23339SOL     OW74863   9.064   1.627   7.249
23339SOL    HW174864   9.066   1.667   7.161
23339SOL    HW274865   9.136   1.564   7.247
23340SOL     OW74866   8.633   1.236   6.710
23340SOL    HW174867   8.557   1.255   6.766
23340SOL    HW274868   8.598   1.239   6.621
23341SOL     OW74869   9.053   1.079   6.673
23341SOL    HW174870   9.031   1.132   6.750
23341SOL    HW274871   8.995   1.112   6.604
23342SOL     OW74872   8.336   0.105   6.945
23342SOL    HW174873   8.356   0.080   6.854
23342SOL    HW274874   8.411   0.159   6.972
23343SOL     OW74875   8.371   1.176   7.241
23343SOL    HW174876   8.304   1.170   7.309
23343SOL    HW274877   8.407   1.088   7.236
23344SOL     OW74878   8.152   1.044   5.922
23344SOL    HW174879   8.137   1.027   6.015
23344SOL    HW274880   8.241   1.014   5.907
23345SOL     OW74881   8.728   0.381   6.867
23345SOL    HW174882   8.757   0.457   6.918
23345SOL    HW274883   8.642   0.408   6.832
23346SOL     OW74884   7.523   1.576   6.941
23346SOL    HW174885   7.498   1.663   6.909
23346SOL    HW274886   7.617   1.571   6.925
23347SOL     OW74887   7.747   1.197   6.045
23347SOL    HW174888   7.747   1.272   5.985
23347SOL    HW274889   7.756   1.121   5.987
23348SOL     OW74890   8.015   0.454   6.502
23348SOL    HW174891   8.064   0.421   6.427
23348SOL    HW274892   8.070   0.524   6.538
23349SOL     OW74893   8.773   1.470   6.759
23349SOL    HW174894   8.822   1.468   6.840
23349SOL    HW274895   8.725   1.386   6.758
23350SOL     OW74896   9.043   0.619   6.070
23350SOL    HW174897   9.004   0.664   6.144
23350SOL    HW274898   9.108   0.679   6.036
23351SOL     OW74899   7.781   1.564   6.848
23351SOL    HW174900   7.785   1.497   6.779
23351SOL    HW274901   7.872   1.577   6.874
23352SOL     OW74902   7.931   0.746   7.245
23352SOL    HW174903   7.980   0.769   7.166
23352SOL    HW274904   7.987   0.682   7.290
23353SOL     OW74905   9.072   0.816   7.294
23353SOL    HW174906   8.984   0.852   7.289
23353SOL    HW274907   9.120   0.860   7.224
23354SOL     OW74908   8.409   0.069   7.373
23354SOL    HW174909   8.478   0.116   7.419
23354SOL    HW274910   8.450   0.039   7.292
23355SOL     OW74911   7.927   0.059   7.265
23355SOL    HW174912   7.972   0.112   7.199
23355SOL    HW274913   7.897   0.121   7.330
23356SOL     OW74914   7.960   0.942   6.599
23356SOL    HW174915   8.055   0.940   6.597
23356SOL    HW274916   7.937   0.921   6.690
23357SOL     OW74917   8.839   0.778   6.577
23357SOL    HW174918   8.743   0.776   6.577
23357SOL    HW274919   8.865   0.687   6.579
23358SOL     OW74920   8.638   0.522   5.846
23358SOL    HW174921   8.663   0.456   5.910
23358SOL    HW274922   8.573   0.577   5.891
23359SOL     OW74923   7.740   0.178   6.849
23359SOL    HW174924   7.707   0.210   6.933
23359SOL    HW274925   7.748   0.084   6.861
23360SOL     OW74926   7.443   1.332   6.835
23360SOL    HW174927   7.475   1.258   6.887
23360SOL    HW274928   7.477   1.409   6.881
23361SOL     OW74929   8.199   0.646   6.580
23361SOL    HW174930   8.282   0.612   6.549
23361SOL    HW274931   8.209   0.741   6.577
23362SOL     OW74932   9.181   0.933   7.526
23362SOL    HW174933   9.142   0.893   7.449
23362SOL    HW274934   9.121   0.912   7.598
23363SOL     OW74935   7.711   0.075   6.259
23363SOL    HW174936   7.709   0.170   6.268
23363SOL    HW274937   7.714   0.042   6.349
23364SOL     OW74938   9.037   0.368   5.947
23364SOL    HW174939   9.113   0.330   5.990
23364SOL    HW274940   9.031   0.457   5.983
23365SOL     OW74941   8.573   0.742   6.605
23365SOL    HW174942   8.509   0.764   6.672
23365SOL    HW274943   8.526   0.686   6.544
23366SOL     OW74944   9.287   1.467   7.169
23366SOL    HW174945   9.318   1.498   7.084
23366SOL    HW274946   9.362   1.480   7.227
23367SOL     OW74947   7.781   0.939   7.368
23367SOL    HW174948   7.829   0.982   7.439
23367SOL    HW274949   7.841   0.873   7.335
23368SOL     OW74950   8.905   0.277   5.713
23368SOL    HW174951   8.882   0.189   5.742
23368SOL    HW274952   8.955   0.315   5.786
23369SOL     OW74953   8.728   0.842   5.627
23369SOL    HW174954   8.760   0.752   5.632
23369SOL    HW274955   8.760   0.874   5.542
23370SOL     OW74956   8.514   1.252   6.468
23370SOL    HW174957   8.469   1.172   6.439
23370SOL    HW274958   8.486   1.319   6.407
23371SOL     OW74959   7.760   0.826   6.461
23371SOL    HW174960   7.833   0.863   6.512
23371SOL    HW274961   7.758   0.734   6.486
23372SOL     OW74962   7.764   0.567   6.536
23372SOL    HW174963   7.713   0.503   6.586
23372SOL    HW274964   7.849   0.525   6.524
23373SOL     OW74965   8.589   0.391   7.244
23373SOL    HW174966   8.535   0.429   7.313
23373SOL    HW274967   8.672   0.438   7.250
23374SOL     OW74968   8.575   0.215   7.035
23374SOL    HW174969   8.570   0.276   7.110
23374SOL    HW274970   8.635   0.258   6.974
23375SOL     OW74971   7.358   1.334   5.910
23375SOL    HW174972   7.277   1.283   5.914
23375SOL    HW274973   7.428   1.269   5.904
23376SOL     OW74974   7.926   1.586   6.443
23376SOL    HW174975   7.997   1.643   6.472
23376SOL    HW274976   7.971   1.513   6.400
23377SOL     OW74977   8.394   0.765   6.815
23377SOL    HW174978   8.455   0.753   6.888
23377SOL    HW274979   8.309   0.739   6.850
23378SOL     OW74980   7.654   0.551   7.301
23378SOL    HW174981   7.745   0.527   7.285
23378SOL    HW274982   7.609   0.531   7.219
23379SOL     OW74983   8.833   0.945   7.250
23379SOL    HW174984   8.825   1.039   7.266
23379SOL    HW274985   8.831   0.937   7.155
23380SOL     OW74986   7.657   1.548   7.328
23380SOL    HW174987   7.619   1.574   7.412
23380SOL    HW274988   7.697   1.462   7.346
23381SOL     OW74989   8.195   0.474   6.814
23381SOL    HW174990   8.130   0.404   6.807
23381SOL    HW274991   8.176   0.533   6.742
23382SOL     OW74992   7.872   0.462   5.711
23382SOL    HW174993   7.944   0.525   5.707
23382SOL    HW274994   7.794   0.517   5.718
23383SOL     OW74995   7.540   1.141   7.009
23383SOL    HW174996   7.561   1.173   7.096
23383SOL    HW274997   7.618   1.094   6.980
23384SOL     OW74998   8.756   0.999   6.781
23384SOL    HW174999   8.754   0.949   6.699
23384SOL    HW275000   8.715   1.083   6.759
23385SOL     OW75001   8.730   0.886   5.902
23385SOL    HW175002   8.699   0.806   5.944
23385SOL    HW275003   8.724   0.868   5.808
23386SOL     OW75004   9.250   1.743   6.762
23386SOL    HW175005   9.312   1.760   6.691
23386SOL    HW275006   9.209   1.660   6.739
23387SOL     OW75007   8.706   1.745   6.759
23387SOL    HW175008   8.784   1.780   6.715
23387SOL    HW275009   8.715   1.650   6.752
23388SOL     OW75010   7.532   1.322   6.561
23388SOL    HW175011   7.510   1.317   6.654
23388SOL    HW275012   7.504   1.238   6.525
23389SOL     OW75013   8.150   1.707   7.254
23389SOL    HW175014   8.108   1.781   7.297
23389SOL    HW275015   8.241   1.710   7.284
23390SOL     OW75016   9.223   0.199   6.067
23390SOL    HW175017   9.278   0.197   5.989
23390SOL    HW275018   9.180   0.114   6.068
23391SOL     OW75019   8.863   1.572   6.091
23391SOL    HW175020   8.928   1.601   6.027
23391SOL    HW275021   8.778   1.590   6.050
23392SOL     OW75022   7.576   1.838   7.457
23392SOL    HW175023   7.555   1.753   7.494
23392SOL    HW275024   7.644   1.873   7.515
23393SOL     OW75025   8.784   1.001   6.250
23393SOL    HW175026   8.830   0.919   6.230
23393SOL    HW275027   8.694   0.973   6.268
23394SOL     OW75028   8.200   1.247   6.980
23394SOL    HW175029   8.194   1.306   7.055
23394SOL    HW275030   8.127   1.273   6.924
23395SOL     OW75031   9.077   1.721   6.988
23395SOL    HW175032   9.140   1.723   6.915
23395SOL    HW275033   9.042   1.810   6.992
23396SOL     OW75034   9.304   0.133   6.556
23396SOL    HW175035   9.363   0.089   6.495
23396SOL    HW275036   9.223   0.146   6.506
23397SOL     OW75037   7.681   0.336   6.346
23397SOL    HW175038   7.596   0.365   6.314
23397SOL    HW275039   7.676   0.346   6.441
23398SOL     OW75040   8.634   1.507   5.628
23398SOL    HW175041   8.658   1.442   5.562
23398SOL    HW275042   8.560   1.554   5.589
23399SOL     OW75043   8.265   0.982   6.969
23399SOL    HW175044   8.307   0.977   6.884
23399SOL    HW275045   8.240   1.074   6.979
23400SOL     OW75046   8.417   0.957   5.904
23400SOL    HW175047   8.459   0.969   5.819
23400SOL    HW275048   8.430   0.864   5.924
23401SOL     OW75049   8.935   1.656   5.651
23401SOL    HW175050   8.851   1.615   5.630
23401SOL    HW275051   8.981   1.659   5.567
23402SOL     OW75052   7.858   1.240   7.028
23402SOL    HW175053   7.904   1.266   6.948
23402SOL    HW275054   7.831   1.149   7.011
23403SOL     OW75055   9.009   1.228   6.907
23403SOL    HW175056   9.064   1.215   6.984
23403SOL    HW275057   8.979   1.319   6.914
23404SOL     OW75058   8.482   0.268   6.531
23404SOL    HW175059   8.456   0.207   6.463
23404SOL    HW275060   8.465   0.221   6.613
23405SOL     OW75061   7.964   1.482   6.100
23405SOL    HW175062   7.966   1.434   6.018
23405SOL    HW275063   8.051   1.471   6.137
23406SOL     OW75064   9.176   0.408   6.893
23406SOL    HW175065   9.265   0.430   6.919
23406SOL    HW275066   9.183   0.318   6.861
23407SOL     OW75067   7.549   1.094   7.335
23407SOL    HW175068   7.481   1.055   7.389
23407SOL    HW275069   7.624   1.036   7.345
23408SOL     OW75070   8.109   0.191   7.086
23408SOL    HW175071   8.185   0.155   7.041
23408SOL    HW275072   8.143   0.223   7.169
23409SOL     OW75073   7.511   0.328   5.628
23409SOL    HW175074   7.459   0.343   5.549
23409SOL    HW275075   7.538   0.415   5.656
23410SOL     OW75076   8.879   0.868   6.983
23410SOL    HW175077   8.819   0.917   6.927
23410SOL    HW275078   8.953   0.847   6.927
23411SOL     OW75079   7.466   0.106   5.805
23411SOL    HW175080   7.471   0.178   5.741
23411SOL    HW275081   7.557   0.078   5.817
23412SOL     OW75082   8.641   1.272   5.806
23412SOL    HW175083   8.600   1.203   5.753
23412SOL    HW275084   8.628   1.352   5.755
23413SOL     OW75085   8.066   0.796   7.012
23413SOL    HW175086   8.138   0.859   7.006
23413SOL    HW275087   8.004   0.824   6.945
23414SOL     OW75088   8.945   1.839   6.636
23414SOL    HW175089   8.970   1.876   6.551
23414SOL    HW275090   9.009   1.769   6.651
23415SOL     OW75091   8.131   0.536   7.306
23415SOL    HW175092   8.192   0.596   7.347
23415SOL    HW275093   8.163   0.449   7.330
23416SOL     OW75094   7.799   1.750   7.178
23416SOL    HW175095   7.712   1.791   7.168
23416SOL    HW275096   7.781   1.665   7.218
23417SOL     OW75097   9.045   0.812   6.757
23417SOL    HW175098   8.966   0.807   6.704
23417SOL    HW275099   9.082   0.898   6.739
23418SOL     OW75100   8.698   0.335   6.043
23418SOL    HW175101   8.757   0.260   6.048
23418SOL    HW275102   8.717   0.386   6.122
23419SOL     OW75103   9.166   0.402   7.183
23419SOL    HW175104   9.154   0.413   7.088
23419SOL    HW275105   9.099   0.338   7.208
23420SOL     OW75106   9.215   0.959   7.093
23420SOL    HW175107   9.187   1.046   7.123
23420SOL    HW275108   9.192   0.957   7.000
23421SOL     OW75109   8.267   1.433   5.647
23421SOL    HW175110   8.294   1.461   5.734
23421SOL    HW275111   8.322   1.483   5.587
23422SOL     OW75112   8.105   1.771   6.542
23422SOL    HW175113   8.157   1.830   6.488
23422SOL    HW275114   8.170   1.717   6.588
23423SOL     OW75115   8.246   0.925   6.527
23423SOL    HW175116   8.297   0.952   6.451
23423SOL    HW275117   8.253   0.999   6.588
23424SOL     OW75118   8.550   1.045   5.677
23424SOL    HW175119   8.511   1.071   5.594
23424SOL    HW275120   8.611   0.975   5.654
23425SOL     OW75121   9.305   1.544   6.423
23425SOL    HW175122   9.224   1.530   6.374
23425SOL    HW275123   9.330   1.457   6.453
23426SOL     OW75124   7.712   1.297   7.432
23426SOL    HW175125   7.652   1.231   7.397
23426SOL    HW275126   7.700   1.293   7.527
23427SOL     OW75127   7.566   1.259   6.242
23427SOL    HW175128   7.603   1.211   6.317
23427SOL    HW275129   7.612   1.223   6.166
23428SOL     OW75130   8.167   1.451   7.167
23428SOL    HW175131   8.097   1.403   7.210
23428SOL    HW275132   8.153   1.542   7.192
23429SOL     OW75133   9.180   0.137   6.808
23429SOL    HW175134   9.155   0.045   6.807
23429SOL    HW275135   9.233   0.148   6.730
23430SOL     OW75136   7.845   0.524   6.210
23430SOL    HW175137   7.845   0.485   6.123
23430SOL    HW275138   7.794   0.463   6.263
23431SOL     OW75139   9.115   1.516   6.698
23431SOL    HW175140   9.053   1.479   6.635
23431SOL    HW275141   9.164   1.440   6.730
23432SOL     OW75142   8.260   1.632   6.299
23432SOL    HW175143   8.269   1.680   6.217
23432SOL    HW275144   8.290   1.543   6.278
23433SOL     OW75145   8.893   0.226   6.709
23433SOL    HW175146   8.943   0.165   6.762
23433SOL    HW275147   8.840   0.275   6.772
23434SOL     OW75148   8.449   0.024   6.694
23434SOL    HW175149   8.436   9.979   6.610
23434SOL    HW275150   8.535   9.996   6.723
23435SOL     OW75151   8.087   1.321   5.905
23435SOL    HW175152   8.104   1.227   5.898
23435SOL    HW275153   8.140   1.349   5.980
23436SOL     OW75154   8.056   1.599   6.853
23436SOL    HW175155   8.054   1.686   6.893
23436SOL    HW275156   8.149   1.582   6.838
23437SOL     OW75157   8.837   0.023   5.792
23437SOL    HW175158   8.914   9.966   5.782
23437SOL    HW275159   8.763   9.962   5.798
23438SOL     OW75160   8.772   0.469   6.272
23438SOL    HW175161   8.729   0.554   6.264
23438SOL    HW275162   8.747   0.438   6.359
23439SOL     OW75163   9.047   0.208   6.463
23439SOL    HW175164   8.995   0.218   6.542
23439SOL    HW275165   9.047   0.295   6.423
23440SOL     OW75166   7.479   1.080   5.915
23440SOL    HW175167   7.564   1.075   5.872
23440SOL    HW275168   7.456   0.989   5.934
23441SOL     OW75169   8.357   1.679   5.867
23441SOL    HW175170   8.295   1.714   5.803
23441SOL    HW275171   8.330   1.716   5.951
23442SOL     OW75172   7.657   0.663   7.578
23442SOL    HW175173   7.572   0.637   7.613
23442SOL    HW275174   7.651   0.646   7.484
23443SOL     OW75175   7.628   0.210   8.532
23443SOL    HW175176   7.689   0.225   8.605
23443SOL    HW275177   7.557   0.273   8.548
23444SOL     OW75178   8.033   1.323   8.673
23444SOL    HW175179   7.949   1.319   8.628
23444SOL    HW275180   8.049   1.416   8.686
23445SOL     OW75181   9.033   1.550   8.154
23445SOL    HW175182   8.993   1.497   8.222
23445SOL    HW275183   8.973   1.543   8.079
23446SOL     OW75184   8.567   0.706   8.137
23446SOL    HW175185   8.619   0.786   8.126
23446SOL    HW275186   8.519   0.720   8.219
23447SOL     OW75187   9.280   0.592   7.650
23447SOL    HW175188   9.245   0.602   7.561
23447SOL    HW275189   9.222   0.528   7.692
23448SOL     OW75190   8.166   1.133   8.507
23448SOL    HW175191   8.116   1.171   8.579
23448SOL    HW275192   8.207   1.208   8.464
23449SOL     OW75193   8.301   0.723   9.254
23449SOL    HW175194   8.311   0.786   9.326
23449SOL    HW275195   8.326   0.772   9.176
23450SOL     OW75196   8.149   0.979   8.088
23450SOL    HW175197   8.211   0.978   8.161
23450SOL    HW275198   8.077   1.035   8.118
23451SOL     OW75199   8.187   1.190   9.257
23451SOL    HW175200   8.231   1.261   9.304
23451SOL    HW275201   8.120   1.234   9.204
23452SOL     OW75202   7.797   1.379   8.529
23452SOL    HW175203   7.711   1.359   8.493
23452SOL    HW275204   7.840   1.430   8.460
23453SOL     OW75205   8.897   1.503   8.828
23453SOL    HW175206   8.940   1.588   8.829
23453SOL    HW275207   8.820   1.514   8.884
23454SOL     OW75208   7.877   0.466   9.077
23454SOL    HW175209   7.972   0.474   9.081
23454SOL    HW275210   7.858   0.455   8.984
23455SOL     OW75211   9.009   0.457   8.171
23455SOL    HW175212   8.926   0.450   8.124
23455SOL    HW275213   9.010   0.546   8.206
23456SOL     OW75214   7.647   1.773   7.883
23456SOL    HW175215   7.680   1.825   7.956
23456SOL    HW275216   7.725   1.734   7.844
23457SOL     OW75217   8.563   1.340   9.148
23457SOL    HW175218   8.590   1.340   9.240
23457SOL    HW275219   8.524   1.254   9.134
23458SOL     OW75220   7.631   1.441   8.008
23458SOL    HW175221   7.585   1.506   8.062
23458SOL    HW275222   7.621   1.359   8.057
23459SOL     OW75223   7.731   1.073   8.338
23459SOL    HW175224   7.705   0.981   8.334
23459SOL    HW275225   7.796   1.077   8.409
23460SOL     OW75226   8.025   1.863   8.858
23460SOL    HW175227   7.955   1.832   8.916
23460SOL    HW275228   8.055   1.944   8.898
23461SOL     OW75229   7.967   1.049   7.595
23461SOL    HW175230   8.026   1.085   7.530
23461SOL    HW275231   8.019   1.044   7.675
23462SOL     OW75232   8.970   0.161   8.907
23462SOL    HW175233   9.025   0.230   8.871
23462SOL    HW275234   8.950   0.190   8.996
23463SOL     OW75235   7.617   0.618   8.008
23463SOL    HW175236   7.636   0.530   7.976
23463SOL    HW275237   7.643   0.615   8.101
23464SOL     OW75238   9.306   1.746   7.753
23464SOL    HW175239   9.376   1.737   7.818
23464SOL    HW275240   9.308   1.839   7.730
23465SOL     OW75241   7.516   1.585   7.565
23465SOL    HW175242   7.501   1.492   7.582
23465SOL    HW275243   7.470   1.630   7.636
23466SOL     OW75244   9.164   0.922   8.078
23466SOL    HW175245   9.223   0.872   8.021
23466SOL    HW275246   9.134   0.994   8.024
23467SOL     OW75247   9.102   1.115   7.885
23467SOL    HW175248   9.181   1.108   7.830
23467SOL    HW275249   9.125   1.182   7.950
23468SOL     OW75250   7.558   0.739   9.055
23468SOL    HW175251   7.647   0.763   9.027
23468SOL    HW275252   7.510   0.727   8.974
23469SOL     OW75253   8.079   1.393   8.168
23469SOL    HW175254   8.039   1.306   8.172
23469SOL    HW275255   8.065   1.421   8.078
23470SOL     OW75256   8.702   1.199   8.896
23470SOL    HW175257   8.733   1.136   8.831
23470SOL    HW275258   8.764   1.191   8.968
23471SOL     OW75259   8.237   0.040   7.957
23471SOL    HW175260   8.265   0.131   7.942
23471SOL    HW275261   8.142   0.044   7.959
23472SOL     OW75262   7.564   0.923   8.754
23472SOL    HW175263   7.654   0.895   8.738
23472SOL    HW275264   7.518   0.842   8.779
23473SOL     OW75265   9.008   0.883   7.746
23473SOL    HW175266   8.912   0.881   7.748
23473SOL    HW275267   9.031   0.966   7.788
23474SOL     OW75268   8.654   1.845   8.935
23474SOL    HW175269   8.693   1.829   8.849
23474SOL    HW275270   8.660   1.761   8.981
23475SOL     OW75271   7.791   0.242   9.236
23475SOL    HW175272   7.825   0.319   9.190
23475SOL    HW275273   7.701   0.233   9.204
23476SOL     OW75274   8.934   1.396   8.363
23476SOL    HW175275   8.868   1.424   8.426
23476SOL    HW275276   8.903   1.311   8.332
23477SOL     OW75277   9.069   1.817   7.987
23477SOL    HW175278   9.068   1.767   7.905
23477SOL    HW275279   9.075   1.751   8.056
23478SOL     OW75280   8.029   0.695   7.667
23478SOL    HW175281   8.114   0.735   7.684
23478SOL    HW275282   7.980   0.708   7.749
23479SOL     OW75283   8.743   0.391   8.390
23479SOL    HW175284   8.660   0.345   8.386
23479SOL    HW275285   8.798   0.338   8.448
23480SOL     OW75286   9.034   1.677   7.752
23480SOL    HW175287   9.129   1.682   7.738
23480SOL    HW275288   8.999   1.662   7.664
23481SOL     OW75289   8.299   0.514   8.869
23481SOL    HW175290   8.256   0.502   8.954
23481SOL    HW275291   8.233   0.560   8.816
23482SOL     OW75292   8.847   0.476   9.138
23482SOL    HW175293   8.843   0.518   9.224
23482SOL    HW275294   8.895   0.394   9.153
23483SOL     OW75295   8.392   0.870   9.037
23483SOL    HW175296   8.443   0.807   8.984
23483SOL    HW275297   8.335   0.913   8.974
23484SOL     OW75298   8.481   0.458   8.653
23484SOL    HW175299   8.408   0.462   8.715
23484SOL    HW275300   8.441   0.473   8.567
23485SOL     OW75301   8.508   0.705   7.859
23485SOL    HW175302   8.524   0.703   7.953
23485SOL    HW275303   8.432   0.648   7.846
23486SOL     OW75304   7.546   1.862   9.049
23486SOL    HW175305   7.556   1.852   9.144
23486SOL    HW275306   7.469   1.808   9.028
23487SOL     OW75307   8.366   0.306   7.640
23487SOL    HW175308   8.377   0.383   7.585
23487SOL    HW275309   8.431   0.244   7.608
23488SOL     OW75310   9.138   0.572   9.269
23488SOL    HW175311   9.116   0.643   9.208
23488SOL    HW275312   9.162   0.499   9.212
23489SOL     OW75313   8.850   1.143   7.997
23489SOL    HW175314   8.931   1.136   7.947
23489SOL    HW275315   8.797   1.206   7.948
23490SOL     OW75316   8.068   0.180   8.384
23490SOL    HW175317   7.979   0.147   8.370
23490SOL    HW275318   8.086   0.232   8.305
23491SOL     OW75319   8.465   1.438   7.928
23491SOL    HW175320   8.440   1.511   7.872
23491SOL    HW275321   8.438   1.465   8.016
23492SOL     OW75322   7.797   1.777   8.308
23492SOL    HW175323   7.810   1.682   8.304
23492SOL    HW275324   7.879   1.811   8.345
23493SOL     OW75325   9.235   1.000   8.345
23493SOL    HW175326   9.212   0.998   8.252
23493SOL    HW275327   9.153   1.018   8.390
23494SOL     OW75328   8.662   1.539   8.967
23494SOL    HW175329   8.643   1.465   9.025
23494SOL    HW275330   8.579   1.559   8.925
23495SOL     OW75331   7.732   0.935   7.700
23495SOL    HW175332   7.814   0.966   7.662
23495SOL    HW275333   7.722   0.846   7.669
23496SOL     OW75334   8.949   0.759   8.147
23496SOL    HW175335   8.940   0.739   8.240
23496SOL    HW275336   9.028   0.813   8.142
23497SOL     OW75337   7.914   1.302   9.188
23497SOL    HW175338   7.882   1.305   9.098
23497SOL    HW275339   7.837   1.278   9.240
23498SOL     OW75340   8.557   1.761   7.644
23498SOL    HW175341   8.500   1.730   7.715
23498SOL    HW275342   8.542   1.700   7.572
23499SOL     OW75343   7.612   0.184   8.901
23499SOL    HW175344   7.690   0.193   8.847
23499SOL    HW275345   7.577   0.273   8.906
23500SOL     OW75346   9.053   1.348   7.504
23500SOL    HW175347   8.979   1.406   7.486
23500SOL    HW275348   9.015   1.260   7.504
23501SOL     OW75349   7.898   1.745   7.760
23501SOL    HW175350   7.956   1.782   7.826
23501SOL    HW275351   7.953   1.683   7.712
23502SOL     OW75352   8.893   0.186   7.880
23502SOL    HW175353   8.871   0.127   7.808
23502SOL    HW275354   8.987   0.176   7.891
23503SOL     OW75355   7.673   1.777   8.707
23503SOL    HW175356   7.725   1.701   8.732
23503SOL    HW275357   7.667   1.772   8.611
23504SOL     OW75358   8.317   1.723   8.355
23504SOL    HW175359   8.404   1.758   8.375
23504SOL    HW275360   8.331   1.662   8.283
23505SOL     OW75361   7.879   0.694   7.908
23505SOL    HW175362   7.902   0.602   7.925
23505SOL    HW275363   7.785   0.699   7.924
23506SOL     OW75364   8.951   0.216   9.192
23506SOL    HW175365   8.953   0.248   9.282
23506SOL    HW275366   8.917   0.127   9.199
23507SOL     OW75367   8.090   0.106   7.562
23507SOL    HW175368   8.151   0.040   7.595
23507SOL    HW275369   8.004   0.075   7.590
23508SOL     OW75370   8.255   0.310   9.283
23508SOL    HW175371   8.308   0.233   9.259
23508SOL    HW275372   8.276   0.326   9.375
23509SOL     OW75373   8.313   1.516   8.660
23509SOL    HW175374   8.295   1.489   8.570
23509SOL    HW275375   8.374   1.450   8.694
23510SOL     OW75376   8.776   0.594   8.897
23510SOL    HW175377   8.805   0.560   8.981
23510SOL    HW275378   8.814   0.681   8.891
23511SOL     OW75379   8.264   1.375   8.406
23511SOL    HW175380   8.355   1.372   8.377
23511SOL    HW275381   8.214   1.393   8.326
23512SOL     OW75382   8.396   0.479   8.379
23512SOL    HW175383   8.350   0.484   8.296
23512SOL    HW275384   8.437   0.392   8.379
23513SOL     OW75385   7.961   0.056   7.971
23513SOL    HW175386   7.900   0.023   8.037
23513SOL    HW275387   7.908   0.114   7.917
23514SOL     OW75388   8.875   1.144   7.462
23514SOL    HW175389   8.809   1.149   7.531
23514SOL    HW275390   8.845   1.207   7.396
23515SOL     OW75391   7.833   0.047   7.642
23515SOL    HW175392   7.808   0.108   7.572
23515SOL    HW275393   7.806   0.091   7.722
23516SOL     OW75394   8.377   0.278   7.915
23516SOL    HW175395   8.356   0.297   7.824
23516SOL    HW275396   8.471   0.293   7.922
23517SOL     OW75397   8.511   0.690   8.869
23517SOL    HW175398   8.452   0.615   8.873
23517SOL    HW275399   8.598   0.651   8.866
23518SOL     OW75400   8.673   1.569   8.250
23518SOL    HW175401   8.679   1.626   8.173
23518SOL    HW275402   8.713   1.620   8.321
23519SOL     OW75403   7.935   1.152   8.148
23519SOL    HW175404   7.874   1.125   8.217
23519SOL    HW275405   7.886   1.141   8.067
23520SOL     OW75406   8.702   1.774   8.058
23520SOL    HW175407   8.738   1.845   8.003
23520SOL    HW275408   8.636   1.817   8.111
23521SOL     OW75409   8.476   0.506   7.472
23521SOL    HW175410   8.429   0.587   7.452
23521SOL    HW275411   8.533   0.529   7.545
23522SOL     OW75412   7.561   0.459   8.896
23522SOL    HW175413   7.650   0.460   8.860
23522SOL    HW275414   7.522   0.540   8.864
23523SOL     OW75415   8.283   0.476   8.128
23523SOL    HW175416   8.229   0.545   8.089
23523SOL    HW275417   8.304   0.418   8.054
23524SOL     OW75418   8.389   0.047   8.212
23524SOL    HW175419   8.333   0.044   8.134
23524SOL    HW275420   8.393   9.957   8.243
23525SOL     OW75421   8.853   1.142   8.278
23525SOL    HW175422   8.765   1.105   8.286
23525SOL    HW275423   8.869   1.148   8.184
23526SOL     OW75424   8.895   0.637   8.396
23526SOL    HW175425   8.842   0.557   8.394
23526SOL    HW275426   8.954   0.625   8.471
23527SOL     OW75427   9.307   0.808   7.841
23527SOL    HW175428   9.359   0.750   7.896
23527SOL    HW275429   9.287   0.756   7.763
23528SOL     OW75430   7.953   1.454   7.657
23528SOL    HW175431   7.867   1.420   7.683
23528SOL    HW275432   7.993   1.381   7.609
23529SOL     OW75433   9.183   1.275   8.088
23529SOL    HW175434   9.275   1.256   8.101
23529SOL    HW275435   9.174   1.368   8.108
23530SOL     OW75436   8.847   0.603   7.531
23530SOL    HW175437   8.783   0.570   7.595
23530SOL    HW275438   8.930   0.604   7.578
23531SOL     OW75439   8.066   0.341   7.730
23531SOL    HW175440   8.102   0.267   7.681
23531SOL    HW275441   7.995   0.374   7.675
23532SOL     OW75442   9.179   1.271   9.089
23532SOL    HW175443   9.244   1.208   9.121
23532SOL    HW275444   9.148   1.315   9.168
23533SOL     OW75445   8.478   1.329   8.787
23533SOL    HW175446   8.399   1.301   8.832
23533SOL    HW275447   8.550   1.293   8.839
23534SOL     OW75448   9.063   1.645   9.100
23534SOL    HW175449   9.051   1.678   9.011
23534SOL    HW275450   9.153   1.612   9.102
23535SOL     OW75451   8.617   1.239   8.568
23535SOL    HW175452   8.553   1.267   8.634
23535SOL    HW275453   8.579   1.267   8.485
23536SOL     OW75454   9.003   1.056   8.496
23536SOL    HW175455   8.935   1.066   8.563
23536SOL    HW275456   8.961   1.084   8.415
23537SOL     OW75457   8.324   0.193   8.755
23537SOL    HW175458   8.376   0.141   8.693
23537SOL    HW275459   8.387   0.220   8.821
23538SOL     OW75460   8.438   1.092   9.189
23538SOL    HW175461   8.349   1.123   9.208
23538SOL    HW275462   8.426   1.018   9.131
23539SOL     OW75463   8.148   1.047   7.816
23539SOL    HW175464   8.145   1.023   7.908
23539SOL    HW275465   8.209   0.985   7.776
23540SOL     OW75466   7.815   0.829   8.725
23540SOL    HW175467   7.878   0.842   8.796
23540SOL    HW275468   7.861   0.773   8.662
23541SOL     OW75469   8.729   0.377   8.732
23541SOL    HW175470   8.754   0.453   8.784
23541SOL    HW275471   8.647   0.402   8.690
23542SOL     OW75472   7.467   1.616   8.807
23542SOL    HW175473   7.387   1.663   8.783
23542SOL    HW275474   7.538   1.675   8.781
23543SOL     OW75475   7.769   1.117   7.922
23543SOL    HW175476   7.768   1.190   7.862
23543SOL    HW275477   7.766   1.039   7.866
23544SOL     OW75478   8.714   1.341   7.861
23544SOL    HW175479   8.768   1.416   7.884
23544SOL    HW275480   8.625   1.367   7.886
23545SOL     OW75481   8.779   1.464   8.583
23545SOL    HW175482   8.820   1.467   8.669
23545SOL    HW275483   8.721   1.387   8.587
23546SOL     OW75484   9.010   0.642   7.889
23546SOL    HW175485   8.976   0.673   7.973
23546SOL    HW275486   9.023   0.721   7.837
23547SOL     OW75487   7.795   1.533   8.755
23547SOL    HW175488   7.789   1.476   8.679
23547SOL    HW275489   7.888   1.557   8.759
23548SOL     OW75490   7.844   0.751   9.062
23548SOL    HW175491   7.914   0.782   9.004
23548SOL    HW275492   7.855   0.656   9.064
23549SOL     OW75493   9.053   0.805   9.142
23549SOL    HW175494   8.967   0.826   9.105
23549SOL    HW275495   9.115   0.828   9.072
23550SOL     OW75496   8.452   0.120   9.205
23550SOL    HW175497   8.501   0.199   9.181
23550SOL    HW275498   8.477   0.056   9.138
23551SOL     OW75499   7.985   0.043   9.232
23551SOL    HW175500   7.941   9.988   9.167
23551SOL    HW275501   7.930   0.121   9.238
23552SOL     OW75502   7.958   0.938   8.454
23552SOL    HW175503   8.034   0.993   8.470
23552SOL    HW275504   7.980   0.854   8.495
23553SOL     OW75505   8.723   0.841   8.483
23553SOL    HW175506   8.636   0.814   8.452
23553SOL    HW275507   8.783   0.775   8.447
23554SOL     OW75508   8.643   0.519   7.699
23554SOL    HW175509   8.648   0.446   7.761
23554SOL    HW275510   8.608   0.592   7.751
23555SOL     OW75511   7.447   1.344   8.720
23555SOL    HW175512   7.481   1.280   8.783
23555SOL    HW275513   7.466   1.429   8.760
23556SOL     OW75514   9.179   1.009   9.289
23556SOL    HW175515   9.138   0.933   9.247
23556SOL    HW275516   9.158   0.999   9.382
23557SOL     OW75517   9.084   0.415   7.753
23557SOL    HW175518   9.112   0.350   7.817
23557SOL    HW275519   9.051   0.488   7.806
23558SOL     OW75520   8.460   0.747   8.408
23558SOL    HW175521   8.425   0.768   8.494
23558SOL    HW275522   8.441   0.654   8.396
23559SOL     OW75523   8.430   1.584   9.162
23559SOL    HW175524   8.414   1.612   9.071
23559SOL    HW275525   8.452   1.491   9.154
23560SOL     OW75526   9.327   1.563   9.042
23560SOL    HW175527   9.340   1.651   9.008
23560SOL    HW275528   9.405   1.548   9.096
23561SOL     OW75529   7.773   0.938   9.252
23561SOL    HW175530   7.859   0.965   9.284
23561SOL    HW275531   7.792   0.869   9.188
23562SOL     OW75532   8.972   0.264   7.543
23562SOL    HW175533   8.923   0.198   7.592
23562SOL    HW275534   9.011   0.320   7.610
23563SOL     OW75535   8.716   0.845   7.481
23563SOL    HW175536   8.762   0.761   7.488
23563SOL    HW275537   8.755   0.887   7.404
23564SOL     OW75538   8.526   1.351   8.332
23564SOL    HW175539   8.541   1.278   8.273
23564SOL    HW275540   8.577   1.423   8.295
23565SOL     OW75541   7.749   0.752   8.419
23565SOL    HW175542   7.808   0.827   8.423
23565SOL    HW275543   7.800   0.680   8.455
23566SOL     OW75544   8.596   0.355   9.150
23566SOL    HW175545   8.551   0.424   9.199
23566SOL    HW275546   8.683   0.392   9.133
23567SOL     OW75547   8.561   0.226   8.902
23567SOL    HW175548   8.569   0.277   8.983
23567SOL    HW275549   8.625   0.265   8.842
23568SOL     OW75550   7.471   1.295   7.638
23568SOL    HW175551   7.385   1.322   7.604
23568SOL    HW275552   7.458   1.204   7.665
23569SOL     OW75553   7.555   1.867   8.406
23569SOL    HW175554   7.486   1.800   8.408
23569SOL    HW275555   7.630   1.823   8.366
23570SOL     OW75556   7.932   1.538   8.352
23570SOL    HW175557   7.988   1.610   8.383
23570SOL    HW275558   7.986   1.491   8.289
23571SOL     OW75559   8.346   0.785   8.653
23571SOL    HW175560   8.403   0.759   8.726
23571SOL    HW275561   8.264   0.738   8.669
23572SOL     OW75562   7.645   0.539   9.219
23572SOL    HW175563   7.720   0.512   9.167
23572SOL    HW275564   7.601   0.606   9.167
23573SOL     OW75565   8.794   0.906   9.193
23573SOL    HW175566   8.823   0.991   9.158
23573SOL    HW275567   8.713   0.888   9.146
23574SOL     OW75568   8.279   0.562   7.814
23574SOL    HW175569   8.225   0.491   7.779
23574SOL    HW275570   8.222   0.608   7.875
23575SOL     OW75571   9.065   0.602   8.615
23575SOL    HW175572   9.036   0.538   8.680
23575SOL    HW275573   9.149   0.570   8.585
23576SOL     OW75574   7.665   1.546   9.183
23576SOL    HW175575   7.628   1.573   9.267
23576SOL    HW275576   7.690   1.455   9.196
23577SOL     OW75577   8.411   1.651   8.891
23577SOL    HW175578   8.371   1.610   8.814
23577SOL    HW275579   8.433   1.740   8.862
23578SOL     OW75580   7.881   0.483   7.565
23578SOL    HW175581   7.950   0.548   7.582
23578SOL    HW275582   7.800   0.528   7.588
23579SOL     OW75583   7.562   1.157   8.896
23579SOL    HW175584   7.551   1.124   8.985
23579SOL    HW275585   7.567   1.078   8.841
23580SOL     OW75586   8.771   1.036   8.669
23580SOL    HW175587   8.754   0.961   8.611
23580SOL    HW275588   8.716   1.106   8.634
23581SOL     OW75589   8.736   0.856   7.760
23581SOL    HW175590   8.657   0.818   7.798
23581SOL    HW275591   8.716   0.865   7.667
23582SOL     OW75592   9.201   1.721   8.589
23582SOL    HW175593   9.266   1.757   8.529
23582SOL    HW275594   9.189   1.630   8.560
23583SOL     OW75595   8.763   1.743   8.664
23583SOL    HW175596   8.821   1.778   8.597
23583SOL    HW275597   8.747   1.653   8.638
23584SOL     OW75598   7.529   1.325   8.457
23584SOL    HW175599   7.498   1.327   8.547
23584SOL    HW275600   7.530   1.232   8.434
23585SOL     OW75601   8.146   1.707   9.165
23585SOL    HW175602   8.083   1.779   9.161
23585SOL    HW275603   8.224   1.740   9.122
23586SOL     OW75604   9.185   0.179   7.908
23586SOL    HW175605   9.241   0.183   7.831
23586SOL    HW275606   9.224   0.110   7.963
23587SOL     OW75607   8.856   1.567   7.940
23587SOL    HW175608   8.906   1.603   7.866
23587SOL    HW275609   8.797   1.637   7.966
23588SOL     OW75610   7.583   1.846   9.320
23588SOL    HW175611   7.555   1.760   9.350
23588SOL    HW275612   7.648   1.874   9.384
23589SOL     OW75613   8.728   0.922   8.101
23589SOL    HW175614   8.802   0.862   8.110
23589SOL    HW275615   8.761   0.994   8.048
23590SOL     OW75616   8.222   1.271   8.873
23590SOL    HW175617   8.197   1.325   8.947
23590SOL    HW275618   8.153   1.286   8.808
23591SOL     OW75619   8.146   1.658   7.611
23591SOL    HW175620   8.216   1.631   7.552
23591SOL    HW275621   8.088   1.581   7.616
23592SOL     OW75622   9.053   1.734   8.834
23592SOL    HW175623   9.106   1.731   8.755
23592SOL    HW275624   9.024   1.825   8.841
23593SOL     OW75625   9.272   0.134   8.418
23593SOL    HW175626   9.281   0.041   8.400
23593SOL    HW275627   9.193   0.160   8.372
23594SOL     OW75628   8.251   0.996   8.841
23594SOL    HW175629   8.278   0.981   8.751
23594SOL    HW275630   8.243   1.091   8.848
23595SOL     OW75631   8.328   0.874   7.704
23595SOL    HW175632   8.387   0.930   7.654
23595SOL    HW275633   8.386   0.819   7.757
23596SOL     OW75634   8.923   1.658   7.493
23596SOL    HW175635   8.863   1.585   7.484
23596SOL    HW275636   8.977   1.655   7.413
23597SOL     OW75637   7.779   1.329   8.953
23597SOL    HW175638   7.777   1.402   8.890
23597SOL    HW275639   7.709   1.271   8.924
23598SOL     OW75640   9.086   1.315   8.780
23598SOL    HW175641   9.039   1.232   8.775
23598SOL    HW275642   9.018   1.381   8.792
23599SOL     OW75643   8.547   1.105   8.212
23599SOL    HW175644   8.464   1.064   8.237
23599SOL    HW275645   8.593   1.039   8.161
23600SOL     OW75646   8.514   0.229   8.384
23600SOL    HW175647   8.478   0.178   8.311
23600SOL    HW275648   8.506   0.171   8.459
23601SOL     OW75649   8.076   1.472   7.907
23601SOL    HW175650   8.148   1.421   7.871
23601SOL    HW275651   8.013   1.480   7.836
23602SOL     OW75652   9.188   0.364   8.847
23602SOL    HW175653   9.254   0.431   8.830
23602SOL    HW275654   9.209   0.293   8.786
23603SOL     OW75655   7.712   1.350   7.760
23603SOL    HW175656   7.624   1.334   7.724
23603SOL    HW275657   7.695   1.394   7.844
23604SOL     OW75658   7.534   1.064   9.166
23604SOL    HW175659   7.463   1.017   9.210
23604SOL    HW275660   7.612   1.011   9.182
23605SOL     OW75661   7.541   0.341   7.440
23605SOL    HW175662   7.459   0.334   7.390
23605SOL    HW275663   7.581   0.422   7.408
23606SOL     OW75664   8.876   0.853   8.871
23606SOL    HW175665   8.816   0.908   8.822
23606SOL    HW275666   8.957   0.855   8.820
23607SOL     OW75667   7.533   0.180   7.677
23607SOL    HW175668   7.538   0.244   7.607
23607SOL    HW275669   7.610   0.195   7.731
23608SOL     OW75670   8.657   1.254   7.599
23608SOL    HW175671   8.689   1.325   7.543
23608SOL    HW275672   8.676   1.284   7.688
23609SOL     OW75673   8.041   0.821   8.887
23609SOL    HW175674   8.110   0.887   8.879
23609SOL    HW275675   8.068   0.752   8.825
23610SOL     OW75676   8.955   1.777   8.459
23610SOL    HW175677   8.978   1.747   8.371
23610SOL    HW275678   9.037   1.772   8.508
23611SOL     OW75679   8.160   0.506   9.117
23611SOL    HW175680   8.194   0.583   9.163
23611SOL    HW275681   8.189   0.432   9.171
23612SOL     OW75682   8.899   1.153   9.103
23612SOL    HW175683   8.879   1.184   9.192
23612SOL    HW275684   8.987   1.186   9.085
23613SOL     OW75685   7.806   1.759   9.033
23613SOL    HW175686   7.719   1.796   9.013
23613SOL    HW275687   7.787   1.673   9.070
23614SOL     OW75688   9.094   0.869   8.695
23614SOL    HW175689   9.087   0.780   8.660
23614SOL    HW275690   9.078   0.926   8.620
23615SOL     OW75691   8.658   0.332   7.907
23615SOL    HW175692   8.733   0.274   7.896
23615SOL    HW275693   8.679   0.385   7.984
23616SOL     OW75694   8.143   0.710   8.002
23616SOL    HW175695   8.156   0.799   8.036
23616SOL    HW275696   8.049   0.704   7.985
23617SOL     OW75697   9.189   0.340   9.120
23617SOL    HW175698   9.188   0.349   9.025
23617SOL    HW275699   9.112   0.287   9.141
23618SOL     OW75700   9.218   0.903   8.942
23618SOL    HW175701   9.243   0.995   8.947
23618SOL    HW275702   9.182   0.892   8.854
23619SOL     OW75703   8.271   1.411   7.531
23619SOL    HW175704   8.283   1.377   7.620
23619SOL    HW275705   8.352   1.459   7.513
23620SOL     OW75706   8.055   1.783   8.414
23620SOL    HW175707   8.053   1.850   8.482
23620SOL    HW275708   8.149   1.769   8.398
23621SOL     OW75709   8.317   0.977   8.313
23621SOL    HW175710   8.356   0.896   8.346
23621SOL    HW275711   8.271   1.014   8.388
23622SOL     OW75712   8.511   1.015   7.562
23622SOL    HW175713   8.551   1.102   7.569
23622SOL    HW275714   8.578   0.961   7.519
23623SOL     OW75715   9.280   1.571   8.276
23623SOL    HW175716   9.201   1.569   8.221
23623SOL    HW275717   9.256   1.518   8.352
23624SOL     OW75718   7.658   1.281   9.289
23624SOL    HW175719   7.618   1.210   9.240
23624SOL    HW275720   7.603   1.292   9.366
23625SOL     OW75721   7.595   1.189   8.126
23625SOL    HW175722   7.636   1.155   8.206
23625SOL    HW275723   7.646   1.151   8.055
23626SOL     OW75724   8.134   1.436   9.079
23626SOL    HW175725   8.049   1.409   9.115
23626SOL    HW275726   8.143   1.527   9.105
23627SOL     OW75727   9.231   0.144   8.691
23627SOL    HW175728   9.155   0.086   8.683
23627SOL    HW275729   9.261   0.156   8.601
23628SOL     OW75730   7.948   0.439   7.958
23628SOL    HW175731   7.993   0.390   7.889
23628SOL    HW275732   7.860   0.403   7.959
23629SOL     OW75733   9.160   1.464   8.503
23629SOL    HW175734   9.081   1.433   8.458
23629SOL    HW275735   9.177   1.397   8.570
23630SOL     OW75736   8.305   1.566   8.125
23630SOL    HW175737   8.284   1.636   8.064
23630SOL    HW275738   8.227   1.510   8.127
23631SOL     OW75739   8.896   0.232   8.562
23631SOL    HW175740   8.921   0.147   8.598
23631SOL    HW275741   8.844   0.272   8.632
23632SOL     OW75742   8.451   0.031   8.573
23632SOL    HW175743   8.365   0.003   8.539
23632SOL    HW275744   8.491   9.950   8.605
23633SOL     OW75745   8.258   1.306   7.787
23633SOL    HW175746   8.231   1.215   7.796
23633SOL    HW275747   8.341   1.312   7.833
23634SOL     OW75748   8.060   1.603   8.735
23634SOL    HW175749   8.060   1.691   8.773
23634SOL    HW275750   8.152   1.588   8.710
23635SOL     OW75751   8.813   0.045   7.649
23635SOL    HW175752   8.894   9.994   7.648
23635SOL    HW275753   8.744   9.981   7.662
23636SOL     OW75754   8.730   0.479   8.126
23636SOL    HW175755   8.675   0.558   8.126
23636SOL    HW275756   8.728   0.449   8.217
23637SOL     OW75757   9.033   0.221   8.314
23637SOL    HW175758   8.983   0.233   8.395
23637SOL    HW275759   9.026   0.304   8.268
23638SOL     OW75760   7.477   1.024   7.776
23638SOL    HW175761   7.565   1.009   7.743
23638SOL    HW275762   7.448   0.938   7.806
23639SOL     OW75763   8.352   1.662   7.810
23639SOL    HW175764   8.278   1.657   7.750
23639SOL    HW275765   8.331   1.733   7.870
23640SOL     OW75766   7.706   0.651   9.463
23640SOL    HW175767   7.657   0.733   9.466
23640SOL    HW275768   7.684   0.612   9.378
23641SOL     OW75769   9.260   0.592   9.510
23641SOL    HW175770   9.219   0.585   9.424
23641SOL    HW275771   9.214   0.527   9.564
23642SOL     OW75772   7.655   1.734   9.805
23642SOL    HW175773   7.673   1.815   9.852
23642SOL    HW275774   7.734   1.718   9.754
23643SOL     OW75775   8.004   1.044   9.411
23643SOL    HW175776   8.061   1.080   9.343
23643SOL    HW275777   8.052   1.059   9.493
23644SOL     OW75778   7.531   0.666   9.831
23644SOL    HW175779   7.505   0.579   9.862
23644SOL    HW275780   7.501   0.726   9.899
23645SOL     OW75781   9.264   1.770   9.626
23645SOL    HW175782   9.327   1.742   9.693
23645SOL    HW275783   9.297   1.854   9.595
23646SOL     OW75784   7.527   1.591   9.426
23646SOL    HW175785   7.508   1.498   9.440
23646SOL    HW275786   7.486   1.636   9.499
23647SOL     OW75787   9.110   0.819   9.896
23647SOL    HW175788   9.079   0.800   9.985
23647SOL    HW275789   9.187   0.875   9.910
23648SOL     OW75790   9.142   1.168   9.736
23648SOL    HW175791   9.214   1.139   9.680
23648SOL    HW275792   9.185   1.204   9.813
23649SOL     OW75793   9.028   0.922   9.522
23649SOL    HW175794   8.981   0.994   9.564
23649SOL    HW275795   9.089   0.891   9.589
23650SOL     OW75796   8.991   1.757   9.578
23650SOL    HW175797   9.085   1.753   9.595
23650SOL    HW275798   8.978   1.705   9.499
23651SOL     OW75799   8.458   0.692   9.768
23651SOL    HW175800   8.478   0.692   9.862
23651SOL    HW275801   8.377   0.643   9.760
23652SOL     OW75802   7.427   0.827   0.028
23652SOL    HW175803   7.482   0.901   0.054
23652SOL    HW275804   7.406   0.783   0.111
23653SOL     OW75805   8.351   0.359   9.542
23653SOL    HW175806   8.438   0.343   9.506
23653SOL    HW275807   8.348   0.308   9.623
23654SOL     OW75808   8.885   1.144   9.632
23654SOL    HW175809   8.965   1.160   9.681
23654SOL    HW275810   8.821   1.205   9.668
23655SOL     OW75811   8.460   1.459   9.804
23655SOL    HW175812   8.427   1.538   9.762
23655SOL    HW275813   8.412   1.455   9.887
23656SOL     OW75814   7.804   1.877   0.182
23656SOL    HW175815   7.818   1.800   0.237
23656SOL    HW275816   7.891   1.917   0.174
23657SOL     OW75817   7.742   1.013   9.519
23657SOL    HW175818   7.836   1.032   9.514
23657SOL    HW275819   7.720   0.982   9.431
23658SOL     OW75820   8.602   1.804   9.516
23658SOL    HW175821   8.530   1.770   9.568
23658SOL    HW275822   8.617   1.737   9.449
23659SOL     OW75823   9.070   1.372   9.322
23659SOL    HW175824   9.039   1.462   9.332
23659SOL    HW275825   8.994   1.318   9.343
23660SOL     OW75826   7.897   1.722   9.671
23660SOL    HW175827   7.965   1.773   9.716
23660SOL    HW275828   7.928   1.632   9.675
23661SOL     OW75829   8.901   0.182   9.699
23661SOL    HW175830   8.883   0.097   9.660
23661SOL    HW275831   8.992   0.177   9.727
23662SOL     OW75832   7.811   0.642   9.809
23662SOL    HW175833   7.804   0.553   9.843
23662SOL    HW275834   7.720   0.672   9.802
23663SOL     OW75835   8.049   0.088   9.505
23663SOL    HW175836   8.123   0.034   9.533
23663SOL    HW275837   8.043   0.073   9.411
23664SOL     OW75838   7.936   0.102   9.879
23664SOL    HW175839   7.841   0.118   9.881
23664SOL    HW275840   7.969   0.164   9.815
23665SOL     OW75841   8.845   1.220   9.368
23665SOL    HW175842   8.863   1.182   9.454
23665SOL    HW275843   8.760   1.263   9.378
23666SOL     OW75844   7.764   0.132   9.499
23666SOL    HW175845   7.773   0.173   9.413
23666SOL    HW275846   7.854   0.107   9.523
23667SOL     OW75847   8.400   0.233   9.778
23667SOL    HW175848   8.404   0.152   9.828
23667SOL    HW275849   8.490   0.264   9.776
23668SOL     OW75850   8.709   1.865   9.869
23668SOL    HW175851   8.800   1.894   9.865
23668SOL    HW275852   8.701   1.823   9.955
23669SOL     OW75853   8.522   0.561   9.313
23669SOL    HW175854   8.441   0.611   9.302
23669SOL    HW275855   8.530   0.549   9.407
23670SOL     OW75856   8.220   0.403   9.918
23670SOL    HW175857   8.258   0.415   0.004
23670SOL    HW275858   8.266   0.327   9.882
23671SOL     OW75859   9.324   0.824   9.638
23671SOL    HW175860   9.365   0.791   9.718
23671SOL    HW275861   9.300   0.745   9.590
23672SOL     OW75862   8.017   1.438   9.416
23672SOL    HW175863   7.986   1.397   9.497
23672SOL    HW275864   7.976   1.388   9.346
23673SOL     OW75865   8.840   0.572   9.403
23673SOL    HW175866   8.762   0.564   9.458
23673SOL    HW275867   8.890   0.493   9.421
23674SOL     OW75868   7.987   0.301   9.685
23674SOL    HW175869   8.018   0.237   9.620
23674SOL    HW275870   7.975   0.382   9.636
23675SOL     OW75871   8.145   1.102   9.645
23675SOL    HW175872   8.073   1.081   9.704
23675SOL    HW275873   8.204   1.027   9.652
23676SOL     OW75874   7.917   1.052   9.784
23676SOL    HW175875   7.911   1.097   9.868
23676SOL    HW275876   7.826   1.047   9.753
23677SOL     OW75877   8.697   1.366   9.691
23677SOL    HW175878   8.751   1.442   9.713
23677SOL    HW275879   8.614   1.382   9.736
23678SOL     OW75880   8.969   0.600   9.808
23678SOL    HW175881   8.906   0.586   9.878
23678SOL    HW275882   9.016   0.680   9.832
23679SOL     OW75883   8.636   0.569   9.599
23679SOL    HW175884   8.655   0.484   9.639
23679SOL    HW275885   8.574   0.610   9.659
23680SOL     OW75886   7.636   0.195   9.965
23680SOL    HW175887   7.692   0.266   9.932
23680SOL    HW275888   7.676   0.170   0.048
23681SOL     OW75889   9.099   0.421   9.647
23681SOL    HW175890   9.126   0.348   9.704
23681SOL    HW275891   9.049   0.478   9.705
23682SOL     OW75892   8.943   0.317   9.446
23682SOL    HW175893   8.886   0.261   9.499
23682SOL    HW275894   9.010   0.347   9.506
23683SOL     OW75895   7.481   1.314   9.502
23683SOL    HW175896   7.390   1.339   9.486
23683SOL    HW275897   7.476   1.224   9.535
23684SOL     OW75898   8.222   0.556   9.700
23684SOL    HW175899   8.258   0.501   9.630
23684SOL    HW275900   8.220   0.499   9.776
23685SOL     OW75901   7.953   0.569   9.551
23685SOL    HW175902   7.992   0.562   9.464
23685SOL    HW275903   7.861   0.592   9.535
23686SOL     OW75904   8.721   0.831   9.526
23686SOL    HW175905   8.724   0.884   9.606
23686SOL    HW275906   8.688   0.746   9.556
23687SOL     OW75907   9.181   0.178   9.770
23687SOL    HW175908   9.245   0.170   9.699
23687SOL    HW275909   9.232   0.214   9.843
23688SOL     OW75910   8.819   1.614   9.758
23688SOL    HW175911   8.878   1.653   9.694
23688SOL    HW275912   8.754   1.682   9.776
23689SOL     OW75913   8.182   1.657   9.434
23689SOL    HW175914   8.179   1.674   9.340
23689SOL    HW275915   8.118   1.587   9.448
23690SOL     OW75916   9.294   0.145   0.203
23690SOL    HW175917   9.323   0.054   0.201
23690SOL    HW275918   9.200   0.140   0.184
23691SOL     OW75919   8.655   1.607   9.328
23691SOL    HW175920   8.642   1.519   9.365
23691SOL    HW275921   8.583   1.617   9.265
23692SOL     OW75922   8.312   0.888   9.634
23692SOL    HW175923   8.364   0.902   9.555
23692SOL    HW275924   8.365   0.829   9.687
23693SOL     OW75925   8.936   1.621   9.343
23693SOL    HW175926   8.841   1.621   9.329
23693SOL    HW275927   8.973   1.639   9.256
23694SOL     OW75928   7.975   1.461   9.717
23694SOL    HW175929   8.066   1.434   9.699
23694SOL    HW275930   7.963   1.440   9.810
23695SOL     OW75931   7.665   1.387   9.715
23695SOL    HW175932   7.607   1.368   9.641
23695SOL    HW275933   7.749   1.408   9.674
23696SOL     OW75934   7.472   0.362   9.342
23696SOL    HW175935   7.427   0.345   9.259
23696SOL    HW275936   7.543   0.422   9.318
23697SOL     OW75937   7.503   0.197   9.567
23697SOL    HW175938   7.489   0.251   9.490
23697SOL    HW275939   7.593   0.166   9.559
23698SOL     OW75940   8.605   1.349   9.426
23698SOL    HW175941   8.509   1.349   9.426
23698SOL    HW275942   8.628   1.351   9.519
23699SOL     OW75943   8.674   0.333   9.773
23699SOL    HW175944   8.751   0.285   9.744
23699SOL    HW275945   8.665   0.312   9.866
23700SOL     OW75946   8.107   0.764   9.947
23700SOL    HW175947   8.082   0.842   9.996
23700SOL    HW275948   8.155   0.711   0.011
23701SOL     OW75949   8.333   1.391   9.397
23701SOL    HW175950   8.285   1.389   9.479
23701SOL    HW275951   8.312   1.476   9.359
23702SOL     OW75952   8.469   0.922   9.410
23702SOL    HW175953   8.471   0.991   9.343
23702SOL    HW275954   8.562   0.904   9.427
23703SOL     OW75955   7.827   0.385   9.908
23703SOL    HW175956   7.903   0.359   9.856
23703SOL    HW275957   7.864   0.412   9.992
23704SOL     OW75958   8.229   1.361   9.653
23704SOL    HW175959   8.204   1.269   9.652
23704SOL    HW275960   8.306   1.365   9.709
23705SOL     OW75961   8.733   0.052   9.481
23705SOL    HW175962   8.818   0.008   9.474
23705SOL    HW275963   8.674   9.986   9.516
23706SOL     OW75964   7.483   1.052   9.603
23706SOL    HW175965   7.577   1.047   9.585
23706SOL    HW275966   7.453   0.962   9.595
23707SOL     OW75967   8.373   1.678   9.642
23707SOL    HW175968   8.310   1.662   9.573
23707SOL    HW275969   8.340   1.755   9.688
23708SOL     OW75970   7.617   2.515   0.127
23708SOL    HW175971   7.582   2.441   0.077
23708SOL    HW275972   7.701   2.484   0.161
23709SOL     OW75973   7.652   2.165   0.984
23709SOL    HW175974   7.687   2.122   1.063
23709SOL    HW275975   7.564   2.131   0.975
23710SOL     OW75976   7.440   2.252   0.657
23710SOL    HW175977   7.354   2.288   0.678
23710SOL    HW275978   7.421   2.175   0.603
23711SOL     OW75979   8.581   2.578   0.675
23711SOL    HW175980   8.624   2.664   0.672
23711SOL    HW275981   8.531   2.579   0.757
23712SOL     OW75982   9.067   2.457   0.347
23712SOL    HW175983   9.024   2.467   0.262
23712SOL    HW275984   9.078   2.363   0.357
23713SOL     OW75985   8.273   2.555   1.835
23713SOL    HW175986   8.229   2.621   1.890
23713SOL    HW275987   8.318   2.607   1.768
23714SOL     OW75988   8.161   2.856   0.645
23714SOL    HW175989   8.222   2.843   0.717
23714SOL    HW275990   8.096   2.918   0.679
23715SOL     OW75991   7.743   3.350   1.067
23715SOL    HW175992   7.700   3.290   1.005
23715SOL    HW275993   7.807   3.397   1.014
23716SOL     OW75994   8.975   3.350   1.370
23716SOL    HW175995   8.988   3.425   1.313
23716SOL    HW275996   8.955   3.387   1.456
23717SOL     OW75997   7.921   2.228   1.452
23717SOL    HW175998   7.999   2.173   1.459
23717SOL    HW275999   7.849   2.170   1.477
23718SOL     OW76000   9.020   2.333   0.689
23718SOL    HW176001   8.924   2.330   0.683
23718SOL    HW276002   9.042   2.266   0.754
23719SOL     OW76003   7.707   3.596   0.432
23719SOL    HW176004   7.742   3.652   0.502
23719SOL    HW276005   7.655   3.530   0.478
23720SOL     OW76006   8.630   3.196   1.757
23720SOL    HW176007   8.680   3.150   1.825
23720SOL    HW276008   8.657   3.155   1.675
23721SOL     OW76009   7.564   3.383   0.565
23721SOL    HW176010   7.517   3.388   0.482
23721SOL    HW276011   7.589   3.290   0.573
23722SOL     OW76012   7.707   2.987   0.930
23722SOL    HW176013   7.696   2.893   0.937
23722SOL    HW276014   7.798   3.003   0.956
23723SOL     OW76015   9.027   2.011   1.440
23723SOL    HW176016   9.071   2.087   1.402
23723SOL    HW276017   8.998   2.041   1.526
23724SOL     OW76018   7.520   2.515   0.613
23724SOL    HW176019   7.496   2.425   0.632
23724SOL    HW276020   7.523   2.558   0.698
23725SOL     OW76021   9.300   3.625   0.401
23725SOL    HW176022   9.268   3.558   0.462
23725SOL    HW276023   9.395   3.623   0.412
23726SOL     OW76024   9.157   2.700   0.561
23726SOL    HW176025   9.232   2.695   0.620
23726SOL    HW276026   9.152   2.792   0.536
23727SOL     OW76027   9.125   2.959   0.456
23727SOL    HW176028   9.203   2.944   0.403
23727SOL    HW276029   9.152   3.023   0.522
23728SOL     OW76030   7.631   2.561   1.606
23728SOL    HW176031   7.727   2.563   1.609
23728SOL    HW276032   7.607   2.640   1.557
23729SOL     OW76033   8.007   3.282   0.762
23729SOL    HW176034   7.989   3.188   0.765
23729SOL    HW276035   8.021   3.300   0.669
23730SOL     OW76036   8.718   3.105   1.508
23730SOL    HW176037   8.718   3.062   1.423
23730SOL    HW276038   8.800   3.077   1.550
23731SOL     OW76039   8.248   1.939   0.418
23731SOL    HW176040   8.285   1.991   0.490
23731SOL    HW276041   8.235   1.852   0.455
23732SOL     OW76042   7.619   2.852   1.303
23732SOL    HW176043   7.692   2.793   1.324
23732SOL    HW276044   7.610   2.846   1.208
23733SOL     OW76045   8.920   2.863   0.288
23733SOL    HW176046   8.894   2.779   0.325
23733SOL    HW276047   8.995   2.890   0.341
23734SOL     OW76048   8.620   3.613   1.612
23734SOL    HW176049   8.691   3.665   1.573
23734SOL    HW276050   8.618   3.533   1.559
23735SOL     OW76051   7.859   2.242   1.769
23735SOL    HW176052   7.931   2.260   1.708
23735SOL    HW276053   7.893   2.271   1.854
23736SOL     OW76054   8.883   3.243   1.023
23736SOL    HW176055   8.856   3.314   0.964
23736SOL    HW276056   8.875   3.164   0.970
23737SOL     OW76057   8.711   2.257   0.932
23737SOL    HW176058   8.622   2.224   0.944
23737SOL    HW276059   8.766   2.196   0.980
23738SOL     OW76060   8.983   3.607   0.287
23738SOL    HW176061   9.067   3.654   0.280
23738SOL    HW276062   8.918   3.669   0.253
23739SOL     OW76063   8.222   2.462   1.456
23739SOL    HW176064   8.183   2.412   1.528
23739SOL    HW276065   8.203   2.408   1.378
23740SOL     OW76066   8.848   2.341   1.651
23740SOL    HW176067   8.852   2.379   1.739
23740SOL    HW276068   8.891   2.256   1.660
23741SOL     OW76069   8.390   2.705   1.642
23741SOL    HW176070   8.431   2.672   1.562
23741SOL    HW276071   8.336   2.778   1.612
23742SOL     OW76072   8.449   2.255   1.202
23742SOL    HW176073   8.360   2.285   1.222
23742SOL    HW276074   8.442   2.214   1.116
23743SOL     OW76075   8.488   2.587   0.409
23743SOL    HW176076   8.500   2.570   0.502
23743SOL    HW276077   8.400   2.555   0.390
23744SOL     OW76078   7.544   2.671   0.837
23744SOL    HW176079   7.627   2.681   0.883
23744SOL    HW276080   7.509   2.760   0.832
23745SOL     OW76081   7.543   3.697   1.627
23745SOL    HW176082   7.630   3.664   1.652
23745SOL    HW276083   7.562   3.772   1.570
23746SOL     OW76084   8.299   2.248   0.191
23746SOL    HW176085   8.285   2.288   0.105
23746SOL    HW276086   8.312   2.155   0.172
23747SOL     OW76087   9.152   2.477   1.803
23747SOL    HW176088   9.160   2.447   1.893
23747SOL    HW276089   9.172   2.400   1.750
23748SOL     OW76090   8.865   3.021   0.582
23748SOL    HW176091   8.948   3.005   0.538
23748SOL    HW276092   8.819   3.084   0.526
23749SOL     OW76093   7.972   2.025   0.915
23749SOL    HW176094   7.991   2.059   1.002
23749SOL    HW276095   7.983   2.100   0.856
23750SOL     OW76096   8.490   3.313   0.472
23750SOL    HW176097   8.440   3.395   0.478
23750SOL    HW276098   8.506   3.289   0.563
23751SOL     OW76099   7.778   3.717   0.890
23751SOL    HW176100   7.834   3.640   0.904
23751SOL    HW276101   7.834   3.791   0.913
23752SOL     OW76102   9.149   2.857   0.833
23752SOL    HW176103   9.160   2.942   0.790
23752SOL    HW276104   9.123   2.879   0.923
23753SOL     OW76105   8.645   3.375   1.473
23753SOL    HW176106   8.671   3.287   1.501
23753SOL    HW276107   8.652   3.373   1.378
23754SOL     OW76108   7.719   2.789   0.305
23754SOL    HW176109   7.815   2.785   0.298
23754SOL    HW276110   7.695   2.707   0.347
23755SOL     OW76111   8.942   2.653   0.757
23755SOL    HW176112   8.920   2.601   0.834
23755SOL    HW276113   9.014   2.709   0.785
23756SOL     OW76114   7.858   3.147   1.794
23756SOL    HW176115   7.823   3.163   1.706
23756SOL    HW276116   7.938   3.096   1.780
23757SOL     OW76117   7.683   2.085   1.488
23757SOL    HW176118   7.626   2.161   1.497
23757SOL    HW276119   7.633   2.013   1.528
23758SOL     OW76120   9.053   3.195   0.113
23758SOL    HW176121   9.071   3.219   0.022
23758SOL    HW276122   8.975   3.141   0.108
23759SOL     OW76123   7.995   3.620   0.297
23759SOL    HW176124   8.025   3.671   0.372
23759SOL    HW276125   8.075   3.583   0.260
23760SOL     OW76126   8.845   2.025   0.409
23760SOL    HW176127   8.842   1.982   0.324
23760SOL    HW276128   8.820   1.956   0.471
23761SOL     OW76129   7.624   3.677   1.285
23761SOL    HW176130   7.675   3.713   1.358
23761SOL    HW276131   7.687   3.625   1.235
23762SOL     OW76132   8.391   3.546   0.973
23762SOL    HW176133   8.480   3.521   1.000
23762SOL    HW276134   8.348   3.463   0.954
23763SOL     OW76135   7.760   2.578   0.497
23763SOL    HW176136   7.800   2.492   0.486
23763SOL    HW276137   7.677   2.561   0.540
23764SOL     OW76138   8.960   2.083   1.706
23764SOL    HW176139   8.965   2.110   1.798
23764SOL    HW276140   8.916   1.998   1.708
23765SOL     OW76141   8.063   1.972   0.100
23765SOL    HW176142   8.156   1.959   0.121
23765SOL    HW276143   8.059   1.965   0.005
23766SOL     OW76144   8.195   2.114   1.768
23766SOL    HW176145   8.286   2.084   1.766
23766SOL    HW276146   8.158   2.072   1.845
23767SOL     OW76147   8.746   2.456   1.420
23767SOL    HW176148   8.787   2.424   1.500
23767SOL    HW276149   8.778   2.546   1.411
23768SOL     OW76150   8.239   3.333   0.904
23768SOL    HW176151   8.264   3.267   0.968
23768SOL    HW276152   8.162   3.295   0.860
23769SOL     OW76153   8.356   2.394   0.901
23769SOL    HW176154   8.325   2.393   0.810
23769SOL    HW276155   8.376   2.302   0.921
23770SOL     OW76156   7.937   1.896   0.458
23770SOL    HW176157   7.884   1.918   0.534
23770SOL    HW276158   7.984   1.977   0.437
23771SOL     OW76159   8.826   3.030   0.090
23771SOL    HW176160   8.867   2.961   0.143
23771SOL    HW276161   8.745   3.050   0.137
23772SOL     OW76162   8.402   2.214   0.454
23772SOL    HW176163   8.364   2.217   0.367
23772SOL    HW276164   8.496   2.211   0.439
23773SOL     OW76165   8.481   2.569   1.419
23773SOL    HW176166   8.411   2.505   1.434
23773SOL    HW276167   8.561   2.516   1.415
23774SOL     OW76168   7.959   3.013   0.753
23774SOL    HW176169   7.964   2.967   0.837
23774SOL    HW276170   7.887   2.971   0.706
23775SOL     OW76171   8.558   2.333   9.987
23775SOL    HW176172   8.466   2.358   9.979
23775SOL    HW276173   8.587   2.373   0.069
23776SOL     OW76174   7.573   2.342   1.452
23776SOL    HW176175   7.645   2.357   1.391
23776SOL    HW276176   7.576   2.416   1.512
23777SOL     OW76177   8.012   2.097   1.179
23777SOL    HW176178   8.052   2.025   1.229
23777SOL    HW276179   7.919   2.091   1.199
23778SOL     OW76180   8.289   2.384   0.637
23778SOL    HW176181   8.230   2.435   0.582
23778SOL    HW276182   8.327   2.319   0.578
23779SOL     OW76183   8.861   3.008   0.879
23779SOL    HW176184   8.801   2.935   0.896
23779SOL    HW276185   8.861   3.016   0.783
23780SOL     OW76186   8.862   2.506   0.977
23780SOL    HW176187   8.807   2.427   0.970
23780SOL    HW276188   8.927   2.483   1.043
23781SOL     OW76189   9.314   2.600   0.329
23781SOL    HW176190   9.355   2.571   0.410
23781SOL    HW276191   9.227   2.560   0.330
23782SOL     OW76192   9.197   3.142   0.645
23782SOL    HW176193   9.283   3.099   0.644
23782SOL    HW276194   9.216   3.234   0.629
23783SOL     OW76195   8.912   2.429   0.114
23783SOL    HW176196   8.819   2.438   0.135
23783SOL    HW276197   8.926   2.335   0.103
23784SOL     OW76198   7.982   2.142   0.311
23784SOL    HW176199   8.027   2.078   0.255
23784SOL    HW276200   7.975   2.220   0.256
23785SOL     OW76201   9.179   3.100   1.679
23785SOL    HW176202   9.242   3.058   1.620
23785SOL    HW276203   9.198   3.194   1.671
23786SOL     OW76204   9.032   3.497   1.652
23786SOL    HW176205   9.039   3.555   1.576
23786SOL    HW276206   9.111   3.444   1.649
23787SOL     OW76207   8.551   3.097   1.079
23787SOL    HW176208   8.458   3.116   1.087
23787SOL    HW276209   8.561   3.059   0.992
23788SOL     OW76210   9.045   2.931   1.080
23788SOL    HW176211   9.057   2.995   1.150
23788SOL    HW276212   8.972   2.965   1.028
23789SOL     OW76213   8.362   1.946   1.368
23789SOL    HW176214   8.377   1.938   1.274
23789SOL    HW276215   8.443   1.985   1.402
23790SOL     OW76216   8.235   2.985   0.404
23790SOL    HW176217   8.196   2.933   0.474
23790SOL    HW276218   8.306   2.930   0.370
23791SOL     OW76219   7.819   2.682   1.365
23791SOL    HW176220   7.911   2.694   1.388
23791SOL    HW276221   7.813   2.590   1.337
23792SOL     OW76222   8.711   2.220   1.275
23792SOL    HW176223   8.735   2.301   1.319
23792SOL    HW276224   8.621   2.233   1.246
23793SOL     OW76225   7.541   3.417   1.369
23793SOL    HW176226   7.538   3.508   1.341
23793SOL    HW276227   7.634   3.392   1.362
23794SOL     OW76228   7.765   2.925   0.557
23794SOL    HW176229   7.789   2.942   0.466
23794SOL    HW276230   7.749   2.831   0.560
23795SOL     OW76231   7.989   2.431   0.851
23795SOL    HW176232   8.001   2.481   0.770
23795SOL    HW276233   8.052   2.470   0.913
23796SOL     OW76234   8.744   3.217   0.409
23796SOL    HW176235   8.718   3.170   0.330
23796SOL    HW276236   8.663   3.255   0.443
23797SOL     OW76237   8.682   3.307   1.207
23797SOL    HW176238   8.769   3.285   1.174
23797SOL    HW276239   8.625   3.239   1.171
23798SOL     OW76240   7.802   3.346   1.331
23798SOL    HW176241   7.787   3.340   1.236
23798SOL    HW276242   7.894   3.373   1.339
23799SOL     OW76243   7.907   2.558   1.645
23799SOL    HW176244   7.957   2.610   1.582
23799SOL    HW276245   7.964   2.484   1.665
23800SOL     OW76246   8.450   2.023   1.777
23800SOL    HW176247   8.504   2.095   1.745
23800SOL    HW276248   8.499   1.944   1.754
23801SOL     OW76249   7.905   1.914   1.812
23801SOL    HW176250   7.960   1.847   1.772
23801SOL    HW276251   7.881   1.972   1.739
23802SOL     OW76252   8.739   2.758   0.996
23802SOL    HW176253   8.651   2.728   0.972
23802SOL    HW276254   8.791   2.677   1.000
23803SOL     OW76255   8.656   2.439   0.239
23803SOL    HW176256   8.664   2.362   0.296
23803SOL    HW276257   8.588   2.492   0.280
23804SOL     OW76258   7.741   2.047   1.221
23804SOL    HW176259   7.722   2.064   1.313
23804SOL    HW276260   7.732   1.953   1.211
23805SOL     OW76261   7.463   3.165   1.267
23805SOL    HW176262   7.498   3.107   1.334
23805SOL    HW276263   7.487   3.253   1.296
23806SOL     OW76264   8.144   2.552   1.047
23806SOL    HW176265   8.232   2.537   1.012
23806SOL    HW276266   8.139   2.647   1.058
23807SOL     OW76267   9.143   2.863   1.848
23807SOL    HW176268   9.157   2.952   1.814
23807SOL    HW276269   9.091   2.876   1.927
23808SOL     OW76270   7.741   1.923   0.653
23808SOL    HW176271   7.725   2.016   0.669
23808SOL    HW276272   7.752   1.885   0.741
23809SOL     OW76273   9.062   2.186   0.380
23809SOL    HW176274   9.133   2.138   0.421
23809SOL    HW276275   8.983   2.137   0.403
23810SOL     OW76276   8.494   2.623   0.943
23810SOL    HW176277   8.472   2.648   1.033
23810SOL    HW276278   8.456   2.535   0.933
23811SOL     OW76279   8.389   3.327   1.696
23811SOL    HW176280   8.390   3.378   1.615
23811SOL    HW276281   8.473   3.281   1.697
23812SOL     OW76282   9.273   3.362   1.625
23812SOL    HW176283   9.295   3.386   1.535
23812SOL    HW276284   9.353   3.375   1.674
23813SOL     OW76285   7.797   2.734   1.825
23813SOL    HW176286   7.867   2.787   1.863
23813SOL    HW276287   7.842   2.677   1.762
23814SOL     OW76288   8.954   2.159   0.120
23814SOL    HW176289   8.910   2.074   0.122
23814SOL    HW276290   9.007   2.161   0.200
23815SOL     OW76291   8.561   3.246   0.725
23815SOL    HW176292   8.550   3.157   0.759
23815SOL    HW276293   8.607   3.293   0.794
23816SOL     OW76294   7.774   2.717   0.982
23816SOL    HW176295   7.853   2.772   0.988
23816SOL    HW276296   7.806   2.628   0.998
23817SOL     OW76297   7.780   2.407   1.020
23817SOL    HW176298   7.735   2.325   1.000
23817SOL    HW276299   7.852   2.411   0.956
23818SOL     OW76300   8.590   2.235   1.665
23818SOL    HW176301   8.545   2.286   1.733
23818SOL    HW276302   8.675   2.278   1.655
23819SOL     OW76303   8.601   2.046   1.463
23819SOL    HW176304   8.591   2.111   1.532
23819SOL    HW276305   8.651   2.090   1.395
23820SOL     OW76306   7.515   3.644   0.946
23820SOL    HW176307   7.503   3.560   0.901
23820SOL    HW276308   7.607   3.667   0.929
23821SOL     OW76309   7.934   3.491   0.926
23821SOL    HW176310   8.016   3.531   0.955
23821SOL    HW276311   7.960   3.422   0.866
23822SOL     OW76312   8.395   2.687   1.182
23822SOL    HW176313   8.419   2.656   1.269
23822SOL    HW276314   8.308   2.726   1.193
23823SOL     OW76315   7.511   2.467   1.132
23823SOL    HW176316   7.542   2.473   1.042
23823SOL    HW276317   7.590   2.457   1.185
23824SOL     OW76318   7.621   2.368   1.806
23824SOL    HW176319   7.703   2.324   1.785
23824SOL    HW276320   7.610   2.432   1.735
23825SOL     OW76321   8.893   2.763   1.659
23825SOL    HW176322   8.891   2.858   1.668
23825SOL    HW276323   8.861   2.746   1.570
23826SOL     OW76324   8.242   2.487   0.339
23826SOL    HW176325   8.249   2.403   0.293
23826SOL    HW276326   8.166   2.530   0.301
23827SOL     OW76327   9.060   2.453   1.163
23827SOL    HW176328   9.051   2.387   1.231
23827SOL    HW276329   9.147   2.438   1.126
23828SOL     OW76330   7.661   3.407   1.771
23828SOL    HW176331   7.710   3.489   1.761
23828SOL    HW276332   7.722   3.339   1.741
23829SOL     OW76333   8.176   2.327   1.220
23829SOL    HW176334   8.117   2.254   1.200
23829SOL    HW276335   8.152   2.395   1.157
23830SOL     OW76336   8.331   3.453   1.455
23830SOL    HW176337   8.336   3.394   1.380
23830SOL    HW276338   8.357   3.538   1.420
23831SOL     OW76339   7.856   2.383   0.205
23831SOL    HW176340   7.921   2.453   0.202
23831SOL    HW276341   7.839   2.370   0.298
23832SOL     OW76342   7.532   3.003   1.507
23832SOL    HW176343   7.554   2.960   1.589
23832SOL    HW276344   7.571   2.946   1.440
23833SOL     OW76345   8.712   2.918   1.227
23833SOL    HW176346   8.730   2.861   1.152
23833SOL    HW276347   8.655   2.987   1.192
23834SOL     OW76348   8.812   2.620   0.415
23834SOL    HW176349   8.729   2.655   0.446
23834SOL    HW276350   8.789   2.566   0.340
23835SOL     OW76351   9.210   3.650   1.143
23835SOL    HW176352   9.263   3.633   1.065
23835SOL    HW276353   9.135   3.591   1.135
23836SOL     OW76354   8.645   3.541   1.068
23836SOL    HW176355   8.708   3.529   0.997
23836SOL    HW276356   8.662   3.469   1.128
23837SOL     OW76357   7.462   3.171   0.982
23837SOL    HW176358   7.484   3.153   1.073
23837SOL    HW276359   7.459   3.085   0.940
23838SOL     OW76360   8.047   3.531   1.783
23838SOL    HW176361   7.957   3.554   1.762
23838SOL    HW276362   8.065   3.454   1.729
23839SOL     OW76363   8.338   1.968   0.166
23839SOL    HW176364   8.417   1.915   0.160
23839SOL    HW276365   8.308   1.955   0.256
23840SOL     OW76366   9.247   2.023   0.502
23840SOL    HW176367   9.312   2.031   0.432
23840SOL    HW276368   9.230   1.929   0.509
23841SOL     OW76369   7.515   3.691   1.901
23841SOL    HW176370   7.490   3.685   1.808
23841SOL    HW276371   7.605   3.723   1.899
23842SOL     OW76372   8.724   2.809   0.679
23842SOL    HW176373   8.798   2.758   0.712
23842SOL    HW276374   8.765   2.883   0.633
23843SOL     OW76375   8.204   3.471   0.191
23843SOL    HW176376   8.280   3.491   0.137
23843SOL    HW276377   8.216   3.380   0.217
23844SOL     OW76378   9.069   3.637   1.416
23844SOL    HW176379   9.124   3.646   1.338
23844SOL    HW276380   9.037   3.725   1.433
23845SOL     OW76381   9.282   2.020   0.970
23845SOL    HW176382   9.296   1.929   0.943
23845SOL    HW276383   9.202   2.046   0.925
23846SOL     OW76384   7.703   2.191   0.709
23846SOL    HW176385   7.613   2.218   0.687
23846SOL    HW276386   7.704   2.189   0.805
23847SOL     OW76387   8.462   3.483   0.072
23847SOL    HW176388   8.510   3.558   0.108
23847SOL    HW276389   8.512   3.458   9.994
23848SOL     OW76390   8.464   2.851   0.304
23848SOL    HW176391   8.475   2.826   0.212
23848SOL    HW276392   8.470   2.768   0.352
23849SOL     OW76393   7.741   3.198   1.555
23849SOL    HW176394   7.768   3.248   1.478
23849SOL    HW276395   7.675   3.137   1.522
23850SOL     OW76396   9.087   3.114   1.279
23850SOL    HW176397   9.178   3.140   1.296
23850SOL    HW276398   9.035   3.188   1.309
23851SOL     OW76399   8.544   2.984   0.821
23851SOL    HW176400   8.457   2.945   0.834
23851SOL    HW276401   8.592   2.919   0.770
23852SOL     OW76402   8.450   2.122   0.953
23852SOL    HW176403   8.431   2.088   0.865
23852SOL    HW276404   8.445   2.044   1.009
23853SOL     OW76405   8.058   3.292   0.490
23853SOL    HW176406   8.141   3.302   0.444
23853SOL    HW276407   8.030   3.203   0.470
23854SOL     OW76408   9.199   2.231   1.368
23854SOL    HW176409   9.266   2.299   1.366
23854SOL    HW276410   9.240   2.156   1.324
23855SOL     OW76411   7.573   2.875   1.752
23855SOL    HW176412   7.506   2.832   1.805
23855SOL    HW276413   7.653   2.827   1.770
23856SOL     OW76414   8.135   2.050   1.499
23856SOL    HW176415   8.215   2.020   1.457
23856SOL    HW276416   8.159   2.064   1.590
23857SOL     OW76417   7.534   2.315   9.951
23857SOL    HW176418   7.475   2.241   9.938
23857SOL    HW276419   7.622   2.277   9.947
23858SOL     OW76420   8.833   2.725   1.394
23858SOL    HW176421   8.779   2.788   1.346
23858SOL    HW276422   8.917   2.725   1.348
23859SOL     OW76423   7.567   1.985   0.295
23859SOL    HW176424   7.594   2.076   0.299
23859SOL    HW276425   7.644   1.938   0.264
23860SOL     OW76426   8.583   3.084   0.201
23860SOL    HW176427   8.509   3.127   0.160
23860SOL    HW276428   8.545   3.011   0.250
23861SOL     OW76429   8.073   2.697   1.475
23861SOL    HW176430   8.120   2.766   1.522
23861SOL    HW276431   8.138   2.629   1.460
23862SOL     OW76432   8.113   2.370   1.704
23862SOL    HW176433   8.169   2.430   1.753
23862SOL    HW276434   8.148   2.283   1.724
23863SOL     OW76435   8.912   3.037   1.697
23863SOL    HW176436   8.894   3.069   1.785
23863SOL    HW276437   9.003   3.064   1.680
23864SOL     OW76438   9.076   2.719   1.260
23864SOL    HW176439   9.076   2.635   1.215
23864SOL    HW276440   9.071   2.784   1.190
23865SOL     OW76441   8.681   2.244   0.430
23865SOL    HW176442   8.733   2.164   0.419
23865SOL    HW276443   8.703   2.275   0.518
23866SOL     OW76444   8.019   2.608   0.638
23866SOL    HW176445   8.072   2.686   0.627
23866SOL    HW276446   7.951   2.615   0.571
23867SOL     OW76447   9.183   2.249   1.645
23867SOL    HW176448   9.177   2.249   1.549
23867SOL    HW276449   9.120   2.183   1.673
23868SOL     OW76450   9.177   2.772   1.514
23868SOL    HW176451   9.236   2.847   1.503
23868SOL    HW276452   9.145   2.754   1.425
23869SOL     OW76453   8.383   3.211   0.034
23869SOL    HW176454   8.293   3.186   0.053
23869SOL    HW276455   8.395   3.295   0.076
23870SOL     OW76456   8.145   3.680   0.964
23870SOL    HW176457   8.145   3.673   0.868
23870SOL    HW276458   8.226   3.638   0.991
23871SOL     OW76459   8.317   2.832   0.874
23871SOL    HW176460   8.371   2.757   0.899
23871SOL    HW276461   8.255   2.843   0.946
23872SOL     OW76462   8.490   2.791   0.038
23872SOL    HW176463   8.409   2.742   0.021
23872SOL    HW276464   8.545   2.774   9.962
23873SOL     OW76465   7.618   3.093   1.918
23873SOL    HW176466   7.590   3.020   1.862
23873SOL    HW276467   7.703   3.119   1.882
23874SOL     OW76468   7.610   3.117   0.684
23874SOL    HW176469   7.634   3.092   0.773
23874SOL    HW276470   7.658   3.056   0.628
23875SOL     OW76471   8.118   3.303   1.643
23875SOL    HW176472   8.098   3.213   1.669
23875SOL    HW276473   8.211   3.313   1.661
23876SOL     OW76474   9.322   2.017   1.245
23876SOL    HW176475   9.309   1.924   1.261
23876SOL    HW276476   9.310   2.028   1.151
23877SOL     OW76477   7.828   2.306   0.477
23877SOL    HW176478   7.889   2.240   0.445
23877SOL    HW276479   7.795   2.272   0.560
23878SOL     OW76480   9.001   3.480   1.099
23878SOL    HW176481   8.949   3.510   1.024
23878SOL    HW276482   8.991   3.385   1.099
23879SOL     OW76483   7.787   2.414   1.295
23879SOL    HW176484   7.848   2.355   1.338
23879SOL    HW276485   7.805   2.404   1.201
23880SOL     OW76486   8.207   3.551   0.715
23880SOL    HW176487   8.218   3.523   0.624
23880SOL    HW276488   8.224   3.471   0.767
23881SOL     OW76489   8.862   2.075   1.080
23881SOL    HW176490   8.873   1.982   1.098
23881SOL    HW276491   8.824   2.111   1.160
23882SOL     OW76492   8.425   1.885   1.099
23882SOL    HW176493   8.361   1.828   1.057
23882SOL    HW276494   8.505   1.833   1.102
23883SOL     OW76495   8.275   3.237   0.314
23883SOL    HW176496   8.252   3.146   0.335
23883SOL    HW276497   8.357   3.252   0.361
23884SOL     OW76498   8.066   3.406   1.349
23884SOL    HW176499   8.114   3.421   1.431
23884SOL    HW276500   8.129   3.366   1.290
23885SOL     OW76501   8.831   1.910   0.158
23885SOL    HW176502   8.874   1.832   0.122
23885SOL    HW276503   8.742   1.881   0.177
23886SOL     OW76504   8.747   2.358   0.676
23886SOL    HW176505   8.686   2.431   0.671
23886SOL    HW276506   8.730   2.318   0.762
23887SOL     OW76507   9.031   2.100   0.859
23887SOL    HW176508   8.982   2.102   0.941
23887SOL    HW276509   8.989   2.031   0.808
23888SOL     OW76510   7.490   2.946   0.274
23888SOL    HW176511   7.529   3.024   0.233
23888SOL    HW276512   7.565   2.891   0.296
23889SOL     OW76513   8.306   3.524   0.449
23889SOL    HW176514   8.274   3.502   0.361
23889SOL    HW276515   8.315   3.619   0.448
23890SOL     OW76516   7.686   2.559   2.003
23890SOL    HW176517   7.645   2.489   1.952
23890SOL    HW276518   7.719   2.620   1.938
23891SOL     OW76519   7.646   2.165   2.900
23891SOL    HW176520   7.687   2.129   2.979
23891SOL    HW276521   7.662   2.099   2.833
23892SOL     OW76522   7.441   2.260   2.539
23892SOL    HW176523   7.507   2.223   2.597
23892SOL    HW276524   7.420   2.188   2.478
23893SOL     OW76525   7.929   3.172   3.032
23893SOL    HW176526   7.985   3.104   2.994
23893SOL    HW276527   7.988   3.247   3.045
23894SOL     OW76528   9.029   3.347   2.599
23894SOL    HW176529   8.970   3.324   2.671
23894SOL    HW276530   8.971   3.354   2.523
23895SOL     OW76531   8.570   2.574   2.561
23895SOL    HW176532   8.637   2.641   2.548
23895SOL    HW276533   8.544   2.584   2.652
23896SOL     OW76534   8.123   3.006   2.936
23896SOL    HW176535   8.167   2.967   3.012
23896SOL    HW276536   8.183   3.075   2.908
23897SOL     OW76537   8.211   2.684   3.736
23897SOL    HW176538   8.255   2.641   3.809
23897SOL    HW276539   8.274   2.681   3.665
23898SOL     OW76540   8.160   2.903   2.582
23898SOL    HW176541   8.220   2.851   2.636
23898SOL    HW276542   8.182   2.994   2.601
23899SOL     OW76543   8.104   3.124   3.717
23899SOL    HW176544   8.179   3.177   3.744
23899SOL    HW276545   8.102   3.133   3.621
23900SOL     OW76546   7.728   3.273   2.849
23900SOL    HW176547   7.764   3.193   2.887
23900SOL    HW276548   7.803   3.330   2.837
23901SOL     OW76549   8.911   3.427   3.344
23901SOL    HW176550   8.965   3.500   3.312
23901SOL    HW276551   8.971   3.373   3.396
23902SOL     OW76552   7.861   2.164   3.379
23902SOL    HW176553   7.947   2.127   3.362
23902SOL    HW276554   7.862   2.188   3.471
23903SOL     OW76555   7.697   3.569   2.342
23903SOL    HW176556   7.721   3.638   2.404
23903SOL    HW276557   7.775   3.559   2.287
23904SOL     OW76558   8.506   3.153   3.634
23904SOL    HW176559   8.585   3.151   3.579
23904SOL    HW276560   8.458   3.073   3.610
23905SOL     OW76561   7.630   3.318   2.434
23905SOL    HW176562   7.653   3.405   2.399
23905SOL    HW276563   7.707   3.264   2.417
23906SOL     OW76564   7.671   2.970   2.745
23906SOL    HW176565   7.687   2.883   2.783
23906SOL    HW276566   7.755   2.993   2.704
23907SOL     OW76567   8.105   3.668   3.260
23907SOL    HW176568   8.079   3.631   3.344
23907SOL    HW276569   8.196   3.641   3.249
23908SOL     OW76570   9.012   2.015   3.330
23908SOL    HW176571   9.071   2.081   3.293
23908SOL    HW276572   9.000   2.042   3.421
23909SOL     OW76573   7.568   2.481   2.426
23909SOL    HW176574   7.520   2.411   2.470
23909SOL    HW276575   7.658   2.450   2.421
23910SOL     OW76576   9.321   3.533   2.142
23910SOL    HW176577   9.380   3.527   2.217
23910SOL    HW276578   9.310   3.627   2.129
23911SOL     OW76579   7.440   3.420   1.940
23911SOL    HW176580   7.512   3.387   1.886
23911SOL    HW276581   7.450   3.515   1.938
23912SOL     OW76582   9.134   2.783   2.529
23912SOL    HW176583   9.224   2.767   2.557
23912SOL    HW276584   9.142   2.831   2.447
23913SOL     OW76585   9.117   2.965   2.297
23913SOL    HW176586   9.197   2.958   2.244
23913SOL    HW276587   9.140   3.029   2.365
23914SOL     OW76588   8.002   3.261   2.587
23914SOL    HW176589   7.969   3.172   2.597
23914SOL    HW276590   7.982   3.284   2.496
23915SOL     OW76591   8.667   3.117   3.351
23915SOL    HW176592   8.679   3.072   3.267
23915SOL    HW276593   8.744   3.092   3.403
23916SOL     OW76594   8.274   1.923   2.424
23916SOL    HW176595   8.324   1.993   2.384
23916SOL    HW276596   8.186   1.932   2.389
23917SOL     OW76597   7.575   2.769   3.088
23917SOL    HW176598   7.644   2.726   3.138
23917SOL    HW276599   7.602   2.760   2.997
23918SOL     OW76600   8.962   2.891   2.073
23918SOL    HW176601   8.889   2.835   2.100
23918SOL    HW276602   9.011   2.906   2.153
23919SOL     OW76603   7.771   2.196   3.647
23919SOL    HW176604   7.839   2.229   3.705
23919SOL    HW276605   7.778   2.100   3.654
23920SOL     OW76606   8.859   3.257   2.805
23920SOL    HW176607   8.775   3.260   2.851
23920SOL    HW276608   8.870   3.166   2.779
23921SOL     OW76609   9.111   3.627   2.420
23921SOL    HW176610   9.085   3.573   2.346
23921SOL    HW276611   9.123   3.566   2.492
23922SOL     OW76612   8.064   2.564   2.130
23922SOL    HW176613   8.089   2.655   2.112
23922SOL    HW276614   8.003   2.570   2.204
23923SOL     OW76615   8.724   2.274   2.872
23923SOL    HW176616   8.640   2.233   2.851
23923SOL    HW276617   8.784   2.201   2.883
23924SOL     OW76618   9.045   3.490   2.182
23924SOL    HW176619   9.139   3.485   2.166
23924SOL    HW276620   9.006   3.494   2.095
23925SOL     OW76621   8.204   2.526   3.269
23925SOL    HW176622   8.262   2.524   3.345
23925SOL    HW276623   8.223   2.445   3.222
23926SOL     OW76624   8.874   2.341   3.569
23926SOL    HW176625   8.926   2.413   3.533
23926SOL    HW276626   8.932   2.265   3.565
23927SOL     OW76627   8.319   2.319   3.124
23927SOL    HW176628   8.401   2.361   3.150
23927SOL    HW276629   8.333   2.226   3.141
23928SOL     OW76630   8.530   2.575   2.282
23928SOL    HW176631   8.542   2.574   2.378
23928SOL    HW276632   8.445   2.535   2.268
23929SOL     OW76633   7.493   2.721   2.661
23929SOL    HW176634   7.538   2.695   2.741
23929SOL    HW276635   7.562   2.725   2.595
23930SOL     OW76636   7.433   3.870   3.505
23930SOL    HW176637   7.474   3.809   3.567
23930SOL    HW276638   7.506   3.904   3.453
23931SOL     OW76639   8.347   2.213   2.076
23931SOL    HW176640   8.396   2.249   2.002
23931SOL    HW276641   8.316   2.128   2.045
23932SOL     OW76642   9.125   2.477   3.733
23932SOL    HW176643   9.131   2.568   3.702
23932SOL    HW276644   9.157   2.425   3.660
23933SOL     OW76645   8.860   2.997   2.421
23933SOL    HW176646   8.947   2.990   2.382
23933SOL    HW276647   8.811   3.053   2.361
23934SOL     OW76648   7.962   2.076   2.750
23934SOL    HW176649   7.983   2.073   2.843
23934SOL    HW276650   8.047   2.092   2.707
23935SOL     OW76651   8.468   3.326   2.356
23935SOL    HW176652   8.450   3.407   2.308
23935SOL    HW276653   8.506   3.356   2.439
23936SOL     OW76654   7.833   3.646   2.762
23936SOL    HW176655   7.862   3.557   2.784
23936SOL    HW276656   7.914   3.697   2.757
23937SOL     OW76657   9.244   2.952   2.768
23937SOL    HW176658   9.181   2.951   2.695
23937SOL    HW276659   9.189   2.957   2.846
23938SOL     OW76660   8.664   3.379   3.441
23938SOL    HW176661   8.649   3.289   3.411
23938SOL    HW276662   8.756   3.396   3.419
23939SOL     OW76663   7.790   2.812   2.126
23939SOL    HW176664   7.867   2.845   2.079
23939SOL    HW276665   7.777   2.723   2.093
23940SOL     OW76666   8.980   2.563   2.568
23940SOL    HW176667   8.950   2.549   2.658
23940SOL    HW276668   9.032   2.643   2.573
23941SOL     OW76669   7.806   3.076   3.602
23941SOL    HW176670   7.878   3.116   3.552
23941SOL    HW276671   7.837   2.988   3.622
23942SOL     OW76672   8.585   3.623   2.057
23942SOL    HW176673   8.511   3.590   2.107
23942SOL    HW276674   8.598   3.559   1.988
23943SOL     OW76675   7.594   2.081   3.340
23943SOL    HW176676   7.676   2.111   3.378
23943SOL    HW276677   7.571   2.002   3.390
23944SOL     OW76678   9.036   3.255   1.952
23944SOL    HW176679   9.002   3.342   1.929
23944SOL    HW276680   8.958   3.202   1.968
23945SOL     OW76681   7.938   3.583   2.205
23945SOL    HW176682   7.983   3.652   2.252
23945SOL    HW276683   8.001   3.552   2.141
23946SOL     OW76684   8.924   1.867   2.249
23946SOL    HW176685   8.880   1.868   2.165
23946SOL    HW276686   8.919   1.958   2.280
23947SOL     OW76687   7.726   3.657   3.189
23947SOL    HW176688   7.771   3.643   3.272
23947SOL    HW276689   7.744   3.578   3.138
23948SOL     OW76690   8.334   3.579   2.792
23948SOL    HW176691   8.399   3.522   2.835
23948SOL    HW276692   8.297   3.524   2.723
23949SOL     OW76693   7.860   2.566   2.316
23949SOL    HW176694   7.857   2.472   2.334
23949SOL    HW276695   7.780   2.583   2.266
23950SOL     OW76696   9.003   2.083   3.611
23950SOL    HW176697   8.956   2.111   3.689
23950SOL    HW276698   9.033   1.994   3.631
23951SOL     OW76699   8.100   1.977   1.997
23951SOL    HW176700   8.141   1.895   2.023
23951SOL    HW276701   8.031   1.950   1.936
23952SOL     OW76702   8.128   2.041   3.649
23952SOL    HW176703   8.222   2.053   3.634
23952SOL    HW276704   8.100   2.121   3.694
23953SOL     OW76705   8.792   2.503   3.272
23953SOL    HW176706   8.859   2.497   3.340
23953SOL    HW276707   8.792   2.595   3.246
23954SOL     OW76708   8.215   3.284   2.891
23954SOL    HW176709   8.261   3.315   2.969
23954SOL    HW276710   8.284   3.278   2.824
23955SOL     OW76711   8.378   2.370   2.763
23955SOL    HW176712   8.352   2.356   2.672
23955SOL    HW276713   8.413   2.286   2.792
23956SOL     OW76714   8.002   1.952   2.355
23956SOL    HW176715   7.924   1.951   2.410
23956SOL    HW276716   7.989   2.027   2.296
23957SOL     OW76717   8.806   3.100   1.977
23957SOL    HW176718   8.850   3.019   2.002
23957SOL    HW276719   8.768   3.133   2.058
23958SOL     OW76720   7.750   1.882   2.038
23958SOL    HW176721   7.808   1.896   1.964
23958SOL    HW276722   7.800   1.827   2.098
23959SOL     OW76723   8.424   2.141   2.343
23959SOL    HW176724   8.429   2.166   2.251
23959SOL    HW276725   8.505   2.175   2.382
23960SOL     OW76726   8.517   2.486   3.242
23960SOL    HW176727   8.475   2.491   3.328
23960SOL    HW276728   8.611   2.485   3.260
23961SOL     OW76729   8.560   3.393   2.623
23961SOL    HW176730   8.644   3.435   2.605
23961SOL    HW276731   8.551   3.397   2.718
23962SOL     OW76732   7.894   3.006   2.588
23962SOL    HW176733   7.968   2.946   2.597
23962SOL    HW276734   7.860   2.990   2.500
23963SOL     OW76735   8.749   3.629   2.484
23963SOL    HW176736   8.787   3.697   2.428
23963SOL    HW276737   8.728   3.673   2.566
23964SOL     OW76738   8.472   2.364   1.875
23964SOL    HW176739   8.410   2.436   1.868
23964SOL    HW276740   8.530   2.390   1.947
23965SOL     OW76741   7.570   2.447   3.241
23965SOL    HW176742   7.649   2.400   3.217
23965SOL    HW276743   7.600   2.534   3.266
23966SOL     OW76744   8.005   2.039   3.018
23966SOL    HW176745   8.055   1.969   3.062
23966SOL    HW276746   7.919   2.038   3.060
23967SOL     OW76747   8.287   2.328   2.502
23967SOL    HW176748   8.277   2.383   2.424
23967SOL    HW276749   8.338   2.253   2.472
23968SOL     OW76750   8.361   1.929   2.681
23968SOL    HW176751   8.336   1.933   2.589
23968SOL    HW276752   8.400   1.842   2.691
23969SOL     OW76753   8.872   2.989   2.739
23969SOL    HW176754   8.823   2.911   2.768
23969SOL    HW276755   8.871   2.983   2.643
23970SOL     OW76756   8.881   2.519   2.830
23970SOL    HW176757   8.826   2.441   2.842
23970SOL    HW276758   8.953   2.507   2.892
23971SOL     OW76759   9.289   2.671   2.222
23971SOL    HW176760   9.345   2.648   2.295
23971SOL    HW276761   9.270   2.588   2.179
23972SOL     OW76762   7.955   3.266   2.029
23972SOL    HW176763   7.889   3.237   2.092
23972SOL    HW276764   7.927   3.228   1.946
23973SOL     OW76765   9.181   3.129   2.499
23973SOL    HW176766   9.270   3.122   2.531
23973SOL    HW276767   9.146   3.208   2.541
23974SOL     OW76768   8.843   2.417   1.915
23974SOL    HW176769   8.770   2.413   1.977
23974SOL    HW276770   8.898   2.342   1.938
23975SOL     OW76771   7.960   2.150   2.168
23975SOL    HW176772   8.017   2.094   2.114
23975SOL    HW276773   7.939   2.224   2.111
23976SOL     OW76774   8.427   3.053   2.883
23976SOL    HW176775   8.498   3.103   2.921
23976SOL    HW276776   8.411   3.093   2.798
23977SOL     OW76777   9.052   2.987   2.963
23977SOL    HW176778   9.041   3.057   3.027
23977SOL    HW276779   8.980   3.000   2.901
23978SOL     OW76780   8.361   2.051   3.207
23978SOL    HW176781   8.391   1.990   3.139
23978SOL    HW276782   8.438   2.064   3.263
23979SOL     OW76783   8.376   2.918   3.573
23979SOL    HW176784   8.300   2.900   3.628
23979SOL    HW276785   8.415   2.832   3.557
23980SOL     OW76786   8.207   2.965   2.312
23980SOL    HW176787   8.206   2.927   2.400
23980SOL    HW276788   8.167   2.898   2.257
23981SOL     OW76789   7.778   2.639   3.210
23981SOL    HW176790   7.859   2.688   3.226
23981SOL    HW276791   7.807   2.549   3.198
23982SOL     OW76792   8.709   2.260   3.157
23982SOL    HW176793   8.747   2.340   3.193
23982SOL    HW276794   8.711   2.274   3.062
23983SOL     OW76795   7.558   3.434   3.275
23983SOL    HW176796   7.554   3.529   3.264
23983SOL    HW276797   7.644   3.410   3.240
23984SOL     OW76798   7.764   2.985   2.343
23984SOL    HW176799   7.761   3.061   2.286
23984SOL    HW276800   7.786   2.912   2.285
23985SOL     OW76801   7.944   2.482   2.750
23985SOL    HW176802   7.957   2.548   2.681
23985SOL    HW276803   8.026   2.484   2.800
23986SOL     OW76804   8.725   3.191   2.244
23986SOL    HW176805   8.777   3.260   2.285
23986SOL    HW276806   8.635   3.209   2.273
23987SOL     OW76807   7.782   3.395   3.126
23987SOL    HW176808   7.778   3.313   3.077
23987SOL    HW276809   7.876   3.414   3.134
23988SOL     OW76810   7.927   2.600   3.501
23988SOL    HW176811   7.957   2.644   3.422
23988SOL    HW276812   7.996   2.538   3.522
23989SOL     OW76813   8.987   2.565   3.462
23989SOL    HW176814   8.944   2.642   3.500
23989SOL    HW276815   9.071   2.598   3.431
23990SOL     OW76816   8.387   2.019   3.543
23990SOL    HW176817   8.438   2.080   3.490
23990SOL    HW276818   8.433   1.935   3.534
23991SOL     OW76819   7.868   1.931   3.667
23991SOL    HW176820   7.863   1.863   3.600
23991SOL    HW276821   7.959   1.962   3.663
23992SOL     OW76822   7.965   2.782   2.883
23992SOL    HW176823   8.017   2.861   2.895
23992SOL    HW276824   8.029   2.711   2.878
23993SOL     OW76825   8.742   2.766   2.860
23993SOL    HW176826   8.657   2.723   2.852
23993SOL    HW276827   8.806   2.695   2.857
23994SOL     OW76828   8.636   2.401   2.092
23994SOL    HW176829   8.686   2.328   2.130
23994SOL    HW276830   8.611   2.454   2.168
23995SOL     OW76831   7.745   2.029   3.111
23995SOL    HW176832   7.720   2.054   3.200
23995SOL    HW276833   7.735   1.934   3.109
23996SOL     OW76834   7.465   3.200   3.153
23996SOL    HW176835   7.499   3.123   3.198
23996SOL    HW276836   7.504   3.274   3.200
23997SOL     OW76837   8.188   2.536   2.881
23997SOL    HW176838   8.246   2.475   2.835
23997SOL    HW276839   8.244   2.575   2.949
23998SOL     OW76840   9.135   2.747   3.683
23998SOL    HW176841   9.182   2.803   3.622
23998SOL    HW276842   9.077   2.807   3.731
23999SOL     OW76843   7.763   1.946   2.506
23999SOL    HW176844   7.745   2.035   2.535
23999SOL    HW276845   7.777   1.897   2.588
24000SOL     OW76846   8.503   2.604   2.840
24000SOL    HW176847   8.471   2.619   2.929
24000SOL    HW276848   8.475   2.515   2.819
24001SOL     OW76849   7.879   2.813   3.675
24001SOL    HW176850   7.926   2.842   3.753
24001SOL    HW276851   7.943   2.761   3.626
24002SOL     OW76852   8.961   2.171   1.962
24002SOL    HW176853   8.896   2.167   2.033
24002SOL    HW276854   9.045   2.179   2.007
24003SOL     OW76855   8.758   2.679   1.890
24003SOL    HW176856   8.789   2.588   1.895
24003SOL    HW276857   8.790   2.711   1.806
24004SOL     OW76858   8.395   3.171   2.636
24004SOL    HW176859   8.436   3.098   2.590
24004SOL    HW276860   8.461   3.241   2.636
24005SOL     OW76861   7.705   2.707   2.848
24005SOL    HW176862   7.796   2.733   2.861
24005SOL    HW276863   7.708   2.612   2.839
24006SOL     OW76864   7.695   2.424   2.826
24006SOL    HW176865   7.687   2.335   2.861
24006SOL    HW276866   7.788   2.435   2.810
24007SOL     OW76867   8.591   2.115   3.357
24007SOL    HW176868   8.662   2.118   3.422
24007SOL    HW276869   8.625   2.161   3.281
24008SOL     OW76870   7.408   3.186   2.079
24008SOL    HW176871   7.419   3.274   2.042
24008SOL    HW276872   7.470   3.132   2.030
24009SOL     OW76873   7.542   3.629   2.795
24009SOL    HW176874   7.532   3.540   2.762
24009SOL    HW276875   7.636   3.643   2.798
24010SOL     OW76876   7.966   3.409   2.811
24010SOL    HW176877   8.043   3.391   2.865
24010SOL    HW276878   7.983   3.361   2.730
24011SOL     OW76879   8.368   2.644   3.080
24011SOL    HW176880   8.441   2.603   3.126
24011SOL    HW276881   8.293   2.630   3.137
24012SOL     OW76882   7.473   2.485   2.978
24012SOL    HW176883   7.539   2.464   2.912
24012SOL    HW276884   7.518   2.475   3.062
24013SOL     OW76885   7.652   2.417   3.530
24013SOL    HW176886   7.688   2.339   3.570
24013SOL    HW276887   7.617   2.387   3.446
24014SOL     OW76888   8.839   2.798   3.505
24014SOL    HW176889   8.860   2.890   3.518
24014SOL    HW276890   8.819   2.790   3.412
24015SOL     OW76891   8.290   2.437   2.237
24015SOL    HW176892   8.308   2.357   2.187
24015SOL    HW276893   8.215   2.477   2.193
24016SOL     OW76894   9.091   2.492   3.009
24016SOL    HW176895   9.088   2.436   3.087
24016SOL    HW276896   9.181   2.482   2.976
24017SOL     OW76897   7.728   3.486   3.663
24017SOL    HW176898   7.810   3.494   3.711
24017SOL    HW276899   7.697   3.398   3.683
24018SOL     OW76900   8.032   2.317   3.027
24018SOL    HW176901   8.046   2.222   3.023
24018SOL    HW276902   8.120   2.354   3.018
24019SOL     OW76903   7.906   2.373   2.013
24019SOL    HW176904   7.978   2.430   2.038
24019SOL    HW276905   7.828   2.429   2.018
24020SOL     OW76906   7.568   2.976   3.274
24020SOL    HW176907   7.655   3.012   3.292
24020SOL    HW276908   7.582   2.907   3.210
24021SOL     OW76909   8.712   2.990   3.064
24021SOL    HW176910   8.717   2.927   2.991
24021SOL    HW276911   8.690   3.073   3.022
24022SOL     OW76912   8.723   2.758   2.150
24022SOL    HW176913   8.663   2.701   2.197
24022SOL    HW276914   8.721   2.725   2.060
24023SOL     OW76915   9.247   3.589   3.055
24023SOL    HW176916   9.296   3.613   2.976
24023SOL    HW276917   9.188   3.520   3.027
24024SOL     OW76918   7.457   3.087   2.878
24024SOL    HW176919   7.484   3.109   2.967
24024SOL    HW276920   7.538   3.060   2.834
24025SOL     OW76921   8.107   3.465   3.468
24025SOL    HW176922   8.135   3.483   3.558
24025SOL    HW276923   8.188   3.467   3.417
24026SOL     OW76924   9.269   1.994   2.439
24026SOL    HW176925   9.294   1.999   2.346
24026SOL    HW276926   9.216   1.914   2.444
24027SOL     OW76927   8.861   3.400   2.371
24027SOL    HW176928   8.921   3.432   2.303
24027SOL    HW276929   8.818   3.479   2.405
24028SOL     OW76930   7.580   3.736   3.714
24028SOL    HW176931   7.611   3.654   3.675
24028SOL    HW276932   7.632   3.746   3.793
24029SOL     OW76933   8.761   2.764   2.520
24029SOL    HW176934   8.833   2.700   2.519
24029SOL    HW276935   8.797   2.841   2.476
24030SOL     OW76936   8.268   3.165   3.294
24030SOL    HW176937   8.350   3.159   3.343
24030SOL    HW276938   8.281   3.240   3.235
24031SOL     OW76939   8.131   3.476   2.037
24031SOL    HW176940   8.118   3.499   1.945
24031SOL    HW276941   8.088   3.391   2.047
24032SOL     OW76942   9.053   3.642   3.254
24032SOL    HW176943   9.119   3.635   3.185
24032SOL    HW276944   9.029   3.735   3.255
24033SOL     OW76945   9.259   2.027   2.805
24033SOL    HW176946   9.294   1.939   2.791
24033SOL    HW276947   9.177   2.028   2.756
24034SOL     OW76948   7.756   2.203   2.619
24034SOL    HW176949   7.744   2.289   2.660
24034SOL    HW276950   7.831   2.165   2.665
24035SOL     OW76951   8.657   3.461   1.844
24035SOL    HW176952   8.643   3.370   1.816
24035SOL    HW276953   8.637   3.513   1.766
24036SOL     OW76954   8.226   2.912   3.176
24036SOL    HW176955   8.311   2.871   3.164
24036SOL    HW276956   8.246   2.994   3.221
24037SOL     OW76957   8.923   3.507   1.907
24037SOL    HW176958   8.831   3.489   1.890
24037SOL    HW276959   8.963   3.515   1.820
24038SOL     OW76960   7.810   3.103   3.274
24038SOL    HW176961   7.877   3.128   3.337
24038SOL    HW276962   7.852   3.115   3.188
24039SOL     OW76963   9.041   3.200   3.159
24039SOL    HW176964   9.127   3.175   3.194
24039SOL    HW276965   8.993   3.233   3.235
24040SOL     OW76966   8.516   2.942   2.543
24040SOL    HW176967   8.468   2.886   2.605
24040SOL    HW276968   8.596   2.894   2.523
24041SOL     OW76969   8.486   2.119   2.840
24041SOL    HW176970   8.449   2.066   2.770
24041SOL    HW276971   8.494   2.060   2.914
24042SOL     OW76972   7.949   3.327   2.330
24042SOL    HW176973   8.034   3.291   2.303
24042SOL    HW276974   7.942   3.409   2.282
24043SOL     OW76975   9.201   2.231   3.271
24043SOL    HW176976   9.272   2.293   3.259
24043SOL    HW276977   9.216   2.164   3.203
24044SOL     OW76978   7.711   3.183   2.161
24044SOL    HW176979   7.684   3.141   2.080
24044SOL    HW276980   7.642   3.246   2.180
24045SOL     OW76981   7.588   2.790   3.637
24045SOL    HW176982   7.508   2.829   3.672
24045SOL    HW276983   7.654   2.859   3.646
24046SOL     OW76984   8.116   2.046   3.352
24046SOL    HW176985   8.196   2.055   3.300
24046SOL    HW276986   8.146   2.049   3.443
24047SOL     OW76987   7.501   2.128   1.898
24047SOL    HW176988   7.526   2.044   1.861
24047SOL    HW276989   7.556   2.192   1.853
24048SOL     OW76990   8.815   2.779   3.227
24048SOL    HW176991   8.777   2.851   3.177
24048SOL    HW276992   8.905   2.772   3.195
24049SOL     OW76993   7.544   2.033   2.157
24049SOL    HW176994   7.538   2.075   2.071
24049SOL    HW276995   7.617   1.973   2.150
24050SOL     OW76996   8.030   2.731   3.273
24050SOL    HW176997   8.083   2.805   3.242
24050SOL    HW276998   8.089   2.656   3.269
24051SOL     OW76999   8.971   3.682   2.913
24051SOL    HW177000   9.033   3.702   2.843
24051SOL    HW277001   8.990   3.592   2.938
24052SOL     OW77002   8.139   2.450   3.577
24052SOL    HW177003   8.156   2.485   3.665
24052SOL    HW277004   8.224   2.455   3.532
24053SOL     OW77005   8.879   3.078   3.523
24053SOL    HW177006   8.876   3.089   3.618
24053SOL    HW277007   8.954   3.133   3.496
24054SOL     OW77008   7.849   3.562   3.419
24054SOL    HW177009   7.797   3.536   3.495
24054SOL    HW277010   7.931   3.514   3.430
24055SOL     OW77011   9.065   2.754   3.117
24055SOL    HW177012   9.082   2.674   3.066
24055SOL    HW277013   9.077   2.825   3.055
24056SOL     OW77014   7.961   2.678   2.553
24056SOL    HW177015   8.039   2.731   2.539
24056SOL    HW277016   7.938   2.647   2.465
24057SOL     OW77017   9.205   2.268   3.553
24057SOL    HW177018   9.216   2.263   3.458
24057SOL    HW277019   9.146   2.196   3.574
24058SOL     OW77020   9.200   2.706   3.355
24058SOL    HW177021   9.222   2.786   3.403
24058SOL    HW277022   9.159   2.737   3.274
24059SOL     OW77023   8.362   3.275   1.970
24059SOL    HW177024   8.340   3.357   2.013
24059SOL    HW277025   8.374   3.298   1.878
24060SOL     OW77026   8.088   3.751   2.744
24060SOL    HW177027   8.151   3.794   2.686
24060SOL    HW277028   8.134   3.673   2.776
24061SOL     OW77029   8.364   2.823   2.745
24061SOL    HW177030   8.405   2.743   2.779
24061SOL    HW277031   8.384   2.889   2.810
24062SOL     OW77032   9.283   3.409   2.716
24062SOL    HW177033   9.196   3.380   2.688
24062SOL    HW277034   9.316   3.336   2.768
24063SOL     OW77035   7.625   3.235   3.737
24063SOL    HW177036   7.677   3.179   3.679
24063SOL    HW277037   7.657   3.213   3.825
24064SOL     OW77038   7.533   2.987   2.500
24064SOL    HW177039   7.575   2.986   2.586
24064SOL    HW277040   7.605   2.983   2.438
24065SOL     OW77041   8.030   3.192   3.442
24065SOL    HW177042   8.104   3.163   3.388
24065SOL    HW277043   8.043   3.286   3.451
24066SOL     OW77044   9.218   2.035   3.081
24066SOL    HW177045   9.252   1.948   3.099
24066SOL    HW277046   9.227   2.046   2.986
24067SOL     OW77047   7.813   2.303   2.362
24067SOL    HW177048   7.861   2.246   2.302
24067SOL    HW277049   7.806   2.253   2.443
24068SOL     OW77050   9.040   3.409   2.970
24068SOL    HW177051   8.983   3.365   2.906
24068SOL    HW277052   9.051   3.344   3.040
24069SOL     OW77053   7.820   2.363   3.188
24069SOL    HW177054   7.840   2.296   3.253
24069SOL    HW277055   7.890   2.355   3.123
24070SOL     OW77056   8.233   3.422   2.593
24070SOL    HW177057   8.304   3.366   2.562
24070SOL    HW277058   8.156   3.366   2.591
24071SOL     OW77059   8.885   2.060   2.931
24071SOL    HW177060   8.902   1.967   2.918
24071SOL    HW277061   8.911   2.077   3.021
24072SOL     OW77062   8.472   1.885   3.011
24072SOL    HW177063   8.421   1.822   2.960
24072SOL    HW277064   8.557   1.844   3.022
24073SOL     OW77065   8.208   3.237   2.291
24073SOL    HW177066   8.207   3.143   2.311
24073SOL    HW277067   8.296   3.265   2.313
24074SOL     OW77068   8.049   3.435   3.120
24074SOL    HW177069   8.055   3.524   3.157
24074SOL    HW277070   8.140   3.404   3.119
24075SOL     OW77071   8.762   1.804   2.008
24075SOL    HW177072   8.790   1.749   1.935
24075SOL    HW277073   8.716   1.877   1.966
24076SOL     OW77074   8.593   2.297   2.512
24076SOL    HW177075   8.582   2.390   2.528
24076SOL    HW277076   8.675   2.275   2.557
24077SOL     OW77077   9.021   2.064   2.676
24077SOL    HW177078   8.955   2.073   2.745
24077SOL    HW277079   8.970   2.070   2.595
24078SOL     OW77080   7.515   2.860   2.156
24078SOL    HW177081   7.611   2.855   2.152
24078SOL    HW277082   7.487   2.830   2.069
24079SOL     OW77083   8.358   3.535   2.199
24079SOL    HW177084   8.275   3.515   2.156
24079SOL    HW277085   8.337   3.606   2.260
24080SOL     OW77086   7.673   2.514   3.835
24080SOL    HW177087   7.605   2.508   3.902
24080SOL    HW277088   7.741   2.454   3.865
24081SOL     OW77089   7.614   2.180   4.777
24081SOL    HW177090   7.650   2.143   4.858
24081SOL    HW277091   7.545   2.119   4.750
24082SOL     OW77092   7.310   2.210   4.417
24082SOL    HW177093   7.404   2.223   4.431
24082SOL    HW277094   7.305   2.129   4.365
24083SOL     OW77095   7.988   3.191   4.853
24083SOL    HW177096   8.053   3.133   4.814
24083SOL    HW277097   8.040   3.257   4.900
24084SOL     OW77098   9.002   3.420   4.409
24084SOL    HW177099   8.960   3.391   4.490
24084SOL    HW277100   8.934   3.413   4.342
24085SOL     OW77101   8.595   2.592   4.422
24085SOL    HW177102   8.650   2.670   4.419
24085SOL    HW277103   8.540   2.604   4.500
24086SOL     OW77104   9.150   2.476   4.003
24086SOL    HW177105   9.148   2.488   3.908
24086SOL    HW277106   9.128   2.384   4.016
24087SOL     OW77107   8.224   3.040   4.776
24087SOL    HW177108   8.221   2.996   4.861
24087SOL    HW277109   8.313   3.073   4.770
24088SOL     OW77110   8.065   2.830   4.398
24088SOL    HW177111   8.115   2.803   4.476
24088SOL    HW277112   8.022   2.750   4.368
24089SOL     OW77113   8.116   3.087   5.559
24089SOL    HW177114   8.174   3.140   5.613
24089SOL    HW277115   8.174   3.035   5.503
24090SOL     OW77116   7.789   3.371   4.803
24090SOL    HW177117   7.842   3.292   4.813
24090SOL    HW277118   7.826   3.415   4.726
24091SOL     OW77119   8.894   3.342   5.139
24091SOL    HW177120   8.953   3.418   5.144
24091SOL    HW277121   8.914   3.291   5.217
24092SOL     OW77122   7.905   2.285   5.257
24092SOL    HW177123   7.986   2.249   5.223
24092SOL    HW277124   7.880   2.227   5.328
24093SOL     OW77125   9.077   2.285   4.454
24093SOL    HW177126   9.044   2.342   4.385
24093SOL    HW277127   9.061   2.334   4.535
24094SOL     OW77128   7.689   3.551   4.171
24094SOL    HW177129   7.713   3.627   4.225
24094SOL    HW277130   7.770   3.530   4.124
24095SOL     OW77131   8.529   3.178   5.372
24095SOL    HW177132   8.590   3.131   5.315
24095SOL    HW277133   8.470   3.110   5.405
24096SOL     OW77134   7.569   3.350   4.318
24096SOL    HW177135   7.612   3.420   4.268
24096SOL    HW277136   7.631   3.278   4.316
24097SOL     OW77137   7.661   2.953   4.613
24097SOL    HW177138   7.674   2.866   4.652
24097SOL    HW277139   7.746   2.977   4.577
24098SOL     OW77140   7.971   3.651   5.103
24098SOL    HW177141   7.952   3.630   5.194
24098SOL    HW277142   8.030   3.727   5.107
24099SOL     OW77143   7.986   2.946   3.891
24099SOL    HW177144   8.039   3.001   3.834
24099SOL    HW277145   8.039   2.934   3.970
24100SOL     OW77146   7.655   2.529   4.263
24100SOL    HW177147   7.677   2.438   4.247
24100SOL    HW277148   7.739   2.574   4.273
24101SOL     OW77149   9.269   3.640   3.980
24101SOL    HW177150   9.341   3.608   4.034
24101SOL    HW277151   9.282   3.735   3.978
24102SOL     OW77152   7.419   3.398   3.824
24102SOL    HW177153   7.496   3.346   3.800
24102SOL    HW277154   7.445   3.443   3.904
24103SOL     OW77155   9.200   2.742   4.403
24103SOL    HW177156   9.286   2.713   4.434
24103SOL    HW277157   9.207   2.741   4.308
24104SOL     OW77158   9.078   2.976   4.137
24104SOL    HW177159   9.162   2.965   4.092
24104SOL    HW277160   9.100   3.027   4.215
24105SOL     OW77161   7.590   2.641   5.289
24105SOL    HW177162   7.682   2.618   5.297
24105SOL    HW277163   7.584   2.729   5.325
24106SOL     OW77164   8.046   3.246   4.471
24106SOL    HW177165   7.995   3.165   4.484
24106SOL    HW277166   8.040   3.263   4.377
24107SOL     OW77167   8.705   3.083   5.183
24107SOL    HW177168   8.728   3.020   5.114
24107SOL    HW277169   8.787   3.094   5.232
24108SOL     OW77170   8.189   1.903   4.209
24108SOL    HW177171   8.258   1.970   4.210
24108SOL    HW277172   8.168   1.889   4.301
24109SOL     OW77173   7.704   2.824   4.988
24109SOL    HW177174   7.788   2.787   5.016
24109SOL    HW277175   7.687   2.784   4.903
24110SOL     OW77176   8.920   2.873   3.925
24110SOL    HW177177   8.856   2.807   3.954
24110SOL    HW277178   8.976   2.886   4.001
24111SOL     OW77179   8.568   3.678   5.327
24111SOL    HW177180   8.618   3.716   5.255
24111SOL    HW277181   8.592   3.585   5.327
24112SOL     OW77182   7.801   2.160   5.484
24112SOL    HW177183   7.824   2.069   5.501
24112SOL    HW277184   7.849   2.210   5.550
24113SOL     OW77185   8.869   3.325   4.644
24113SOL    HW177186   8.847   3.321   4.738
24113SOL    HW277187   8.890   3.235   4.621
24114SOL     OW77188   9.053   3.669   4.265
24114SOL    HW177189   9.043   3.625   4.180
24114SOL    HW277190   9.053   3.598   4.329
24115SOL     OW77191   7.944   2.595   3.998
24115SOL    HW177192   8.031   2.603   3.959
24115SOL    HW277193   7.916   2.505   3.976
24116SOL     OW77194   8.754   2.275   4.657
24116SOL    HW177195   8.669   2.231   4.666
24116SOL    HW277196   8.816   2.216   4.701
24117SOL     OW77197   9.016   3.539   4.024
24117SOL    HW177198   9.108   3.557   4.007
24117SOL    HW277199   8.979   3.520   3.938
24118SOL     OW77200   8.939   2.420   5.365
24118SOL    HW177201   8.965   2.386   5.451
24118SOL    HW277202   8.946   2.346   5.306
24119SOL     OW77203   8.438   2.848   5.186
24119SOL    HW177204   8.477   2.827   5.271
24119SOL    HW277205   8.368   2.784   5.174
24120SOL     OW77206   8.493   2.602   4.154
24120SOL    HW177207   8.528   2.564   4.234
24120SOL    HW277208   8.490   2.529   4.092
24121SOL     OW77209   7.544   2.658   4.495
24121SOL    HW177210   7.590   2.599   4.435
24121SOL    HW277211   7.600   2.662   4.573
24122SOL     OW77212   7.599   3.712   5.312
24122SOL    HW177213   7.567   3.712   5.402
24122SOL    HW277214   7.652   3.791   5.305
24123SOL     OW77215   8.348   2.194   3.944
24123SOL    HW177216   8.393   2.278   3.955
24123SOL    HW277217   8.384   2.158   3.862
24124SOL     OW77218   9.267   2.460   5.429
24124SOL    HW177219   9.207   2.535   5.432
24124SOL    HW277220   9.245   2.409   5.507
24125SOL     OW77221   8.818   3.021   4.228
24125SOL    HW177222   8.904   2.998   4.193
24125SOL    HW277223   8.791   3.097   4.177
24126SOL     OW77224   7.978   2.042   4.661
24126SOL    HW177225   7.981   2.055   4.756
24126SOL    HW277226   7.968   2.131   4.626
24127SOL     OW77227   7.791   3.705   4.595
24127SOL    HW177228   7.840   3.623   4.594
24127SOL    HW277229   7.858   3.772   4.610
24128SOL     OW77230   9.261   2.951   4.593
24128SOL    HW177231   9.248   2.876   4.534
24128SOL    HW277232   9.200   2.936   4.665
24129SOL     OW77233   8.660   3.417   5.299
24129SOL    HW177234   8.623   3.331   5.317
24129SOL    HW277235   8.733   3.400   5.240
24130SOL     OW77236   7.762   2.815   3.995
24130SOL    HW177237   7.826   2.865   3.944
24130SOL    HW277238   7.801   2.727   4.001
24131SOL     OW77239   8.937   2.677   4.456
24131SOL    HW177240   8.932   2.616   4.530
24131SOL    HW277241   9.030   2.698   4.449
24132SOL     OW77242   7.860   3.176   5.508
24132SOL    HW177243   7.844   3.165   5.414
24132SOL    HW277244   7.946   3.136   5.522
24133SOL     OW77245   8.617   3.572   3.952
24133SOL    HW177246   8.580   3.511   4.015
24133SOL    HW277247   8.627   3.520   3.872
24134SOL     OW77248   7.591   2.084   5.306
24134SOL    HW177249   7.665   2.106   5.362
24134SOL    HW277250   7.571   1.993   5.327
24135SOL     OW77251   9.083   3.263   3.846
24135SOL    HW177252   9.083   3.315   3.766
24135SOL    HW277253   9.007   3.205   3.837
24136SOL     OW77254   7.944   3.590   4.026
24136SOL    HW177255   8.020   3.574   4.082
24136SOL    HW277256   7.977   3.580   3.937
24137SOL     OW77257   8.863   1.970   4.180
24137SOL    HW177258   8.852   1.944   4.088
24137SOL    HW277259   8.955   1.994   4.187
24138SOL     OW77260   7.729   3.632   4.968
24138SOL    HW177261   7.817   3.629   5.006
24138SOL    HW277262   7.733   3.569   4.896
24139SOL     OW77263   8.999   2.072   5.454
24139SOL    HW177264   9.010   2.155   5.501
24139SOL    HW277265   8.941   2.093   5.382
24140SOL     OW77266   8.214   2.150   5.412
24140SOL    HW177267   8.295   2.100   5.428
24140SOL    HW277268   8.182   2.170   5.500
24141SOL     OW77269   8.359   3.427   4.958
24141SOL    HW177270   8.382   3.444   4.866
24141SOL    HW277271   8.417   3.354   4.983
24142SOL     OW77272   8.715   2.503   5.232
24142SOL    HW177273   8.792   2.470   5.277
24142SOL    HW277274   8.745   2.582   5.186
24143SOL     OW77275   8.395   2.349   4.615
24143SOL    HW177276   8.374   2.333   4.523
24143SOL    HW277277   8.442   2.269   4.643
24144SOL     OW77278   8.859   3.106   3.798
24144SOL    HW177279   8.879   3.021   3.837
24144SOL    HW277280   8.784   3.138   3.847
24145SOL     OW77281   8.373   2.100   4.197
24145SOL    HW177282   8.369   2.133   4.107
24145SOL    HW277283   8.466   2.097   4.217
24146SOL     OW77284   8.620   3.447   4.611
24146SOL    HW177285   8.629   3.518   4.548
24146SOL    HW277286   8.709   3.411   4.620
24147SOL     OW77287   7.877   3.020   4.454
24147SOL    HW177288   7.945   2.953   4.454
24147SOL    HW277289   7.850   3.027   4.362
24148SOL     OW77290   8.632   3.636   4.404
24148SOL    HW177291   8.686   3.649   4.326
24148SOL    HW277292   8.544   3.620   4.369
24149SOL     OW77293   7.531   2.470   5.082
24149SOL    HW177294   7.623   2.450   5.065
24149SOL    HW277295   7.534   2.535   5.153
24150SOL     OW77296   7.978   2.085   4.935
24150SOL    HW177297   8.034   2.064   5.010
24150SOL    HW277298   7.889   2.079   4.970
24151SOL     OW77299   8.316   2.320   4.356
24151SOL    HW177300   8.317   2.389   4.290
24151SOL    HW277301   8.333   2.239   4.307
24152SOL     OW77302   8.552   1.918   4.487
24152SOL    HW177303   8.529   1.952   4.400
24152SOL    HW277304   8.485   1.851   4.504
24153SOL     OW77305   8.926   3.067   4.551
24153SOL    HW177306   8.864   3.009   4.506
24153SOL    HW277307   8.994   3.084   4.486
24154SOL     OW77308   8.892   2.517   4.678
24154SOL    HW177309   8.839   2.436   4.674
24154SOL    HW277310   8.957   2.499   4.746
24155SOL     OW77311   9.270   2.688   4.134
24155SOL    HW177312   9.344   2.640   4.171
24155SOL    HW277313   9.227   2.625   4.076
24156SOL     OW77314   7.908   3.290   3.832
24156SOL    HW177315   7.851   3.253   3.900
24156SOL    HW277316   7.957   3.215   3.798
24157SOL     OW77317   9.116   3.146   4.358
24157SOL    HW177318   9.211   3.135   4.368
24157SOL    HW277319   9.104   3.241   4.353
24158SOL     OW77320   9.182   3.150   5.323
24158SOL    HW177321   9.243   3.082   5.296
24158SOL    HW277322   9.233   3.231   5.319
24159SOL     OW77323   8.521   3.208   5.027
24159SOL    HW177324   8.437   3.189   5.069
24159SOL    HW277325   8.586   3.163   5.080
24160SOL     OW77326   9.057   3.517   5.405
24160SOL    HW177327   9.041   3.545   5.315
24160SOL    HW277328   9.141   3.473   5.403
24161SOL     OW77329   8.489   3.124   4.765
24161SOL    HW177330   8.507   3.150   4.855
24161SOL    HW277331   8.555   3.057   4.745
24162SOL     OW77332   9.047   2.941   4.770
24162SOL    HW177333   9.039   3.005   4.840
24162SOL    HW277334   9.000   2.979   4.696
24163SOL     OW77335   8.399   1.948   5.100
24163SOL    HW177336   8.426   1.935   5.009
24163SOL    HW277337   8.481   1.952   5.148
24164SOL     OW77338   8.318   2.988   5.406
24164SOL    HW177339   8.345   2.901   5.435
24164SOL    HW277340   8.324   2.985   5.310
24165SOL     OW77341   8.108   2.933   4.143
24165SOL    HW177342   8.103   2.899   4.232
24165SOL    HW277343   8.190   2.897   4.108
24166SOL     OW77344   7.940   2.686   5.040
24166SOL    HW177345   7.998   2.684   5.116
24166SOL    HW277346   7.902   2.598   5.036
24167SOL     OW77347   8.701   2.245   4.997
24167SOL    HW177348   8.784   2.280   5.029
24167SOL    HW277349   8.723   2.200   4.915
24168SOL     OW77350   7.558   3.430   5.115
24168SOL    HW177351   7.562   3.522   5.091
24168SOL    HW277352   7.648   3.399   5.108
24169SOL     OW77353   7.837   3.006   4.180
24169SOL    HW177354   7.932   2.999   4.169
24169SOL    HW277355   7.803   2.928   4.135
24170SOL     OW77356   7.948   2.315   4.580
24170SOL    HW177357   7.935   2.335   4.487
24170SOL    HW277358   8.024   2.367   4.605
24171SOL     OW77359   8.750   3.341   4.906
24171SOL    HW177360   8.807   3.340   4.983
24171SOL    HW277361   8.671   3.294   4.933
24172SOL     OW77362   9.013   2.463   4.252
24172SOL    HW177363   8.975   2.543   4.286
24172SOL    HW277364   9.068   2.492   4.179
24173SOL     OW77365   7.824   3.360   5.077
24173SOL    HW177366   7.800   3.357   4.985
24173SOL    HW277367   7.919   3.364   5.078
24174SOL     OW77368   7.843   2.544   5.350
24174SOL    HW177369   7.923   2.589   5.323
24174SOL    HW277370   7.860   2.452   5.328
24175SOL     OW77371   9.062   2.657   5.418
24175SOL    HW177372   9.016   2.577   5.393
24175SOL    HW277373   9.102   2.688   5.337
24176SOL     OW77374   8.447   2.019   5.466
24176SOL    HW177375   8.488   2.009   5.551
24176SOL    HW277376   8.493   1.956   5.410
24177SOL     OW77377   7.835   1.884   5.510
24177SOL    HW177378   7.882   1.801   5.501
24177SOL    HW277379   7.762   1.864   5.567
24178SOL     OW77380   7.965   2.765   4.769
24178SOL    HW177381   8.052   2.771   4.728
24178SOL    HW277382   7.984   2.743   4.861
24179SOL     OW77383   8.769   2.767   4.736
24179SOL    HW177384   8.761   2.790   4.643
24179SOL    HW277385   8.807   2.680   4.735
24180SOL     OW77386   7.704   2.066   5.018
24180SOL    HW177387   7.669   2.084   5.106
24180SOL    HW277388   7.696   1.971   5.008
24181SOL     OW77389   7.444   3.198   5.004
24181SOL    HW177390   7.484   3.124   5.050
24181SOL    HW277391   7.486   3.275   5.043
24182SOL     OW77392   8.161   2.456   4.703
24182SOL    HW177393   8.240   2.411   4.675
24182SOL    HW277394   8.191   2.544   4.727
24183SOL     OW77395   9.176   2.827   5.601
24183SOL    HW177396   9.135   2.760   5.545
24183SOL    HW277397   9.115   2.837   5.674
24184SOL     OW77398   7.663   1.940   4.359
24184SOL    HW177399   7.640   2.030   4.380
24184SOL    HW277400   7.708   1.908   4.437
24185SOL     OW77401   9.010   2.242   4.072
24185SOL    HW177402   9.057   2.171   4.116
24185SOL    HW277403   8.985   2.301   4.143
24186SOL     OW77404   8.430   2.619   4.652
24186SOL    HW177405   8.429   2.630   4.747
24186SOL    HW277406   8.427   2.524   4.639
24187SOL     OW77407   8.359   3.389   5.426
24187SOL    HW177408   8.358   3.445   5.348
24187SOL    HW277409   8.419   3.317   5.403
24188SOL     OW77410   9.300   3.402   5.335
24188SOL    HW177411   9.329   3.437   5.251
24188SOL    HW277412   9.380   3.396   5.388
24189SOL     OW77413   7.800   2.771   5.519
24189SOL    HW177414   7.874   2.797   5.574
24189SOL    HW277415   7.832   2.695   5.471
24190SOL     OW77416   8.869   2.159   3.847
24190SOL    HW177417   8.838   2.073   3.874
24190SOL    HW277418   8.923   2.190   3.920
24191SOL     OW77419   7.712   2.696   4.719
24191SOL    HW177420   7.804   2.721   4.730
24191SOL    HW277421   7.713   2.600   4.723
24192SOL     OW77422   7.715   2.418   4.695
24192SOL    HW177423   7.682   2.335   4.730
24192SOL    HW277424   7.800   2.397   4.658
24193SOL     OW77425   8.719   2.064   5.200
24193SOL    HW177426   8.806   2.100   5.214
24193SOL    HW277427   8.685   2.113   5.125
24194SOL     OW77428   7.447   3.150   4.019
24194SOL    HW177429   7.369   3.157   3.965
24194SOL    HW277430   7.459   3.056   4.033
24195SOL     OW77431   7.528   3.644   4.681
24195SOL    HW177432   7.513   3.557   4.644
24195SOL    HW277433   7.619   3.664   4.658
24196SOL     OW77434   7.941   3.472   4.593
24196SOL    HW177435   8.013   3.534   4.584
24196SOL    HW277436   7.975   3.390   4.558
24197SOL     OW77437   8.385   2.651   4.921
24197SOL    HW177438   8.469   2.664   4.964
24197SOL    HW277439   8.321   2.649   4.993
24198SOL     OW77440   7.461   2.484   4.814
24198SOL    HW177441   7.537   2.463   4.760
24198SOL    HW277442   7.496   2.486   4.904
24199SOL     OW77443   7.638   2.395   5.518
24199SOL    HW177444   7.695   2.320   5.501
24199SOL    HW277445   7.662   2.459   5.451
24200SOL     OW77446   8.842   2.817   5.405
24200SOL    HW177447   8.925   2.771   5.416
24200SOL    HW277448   8.816   2.799   5.315
24201SOL     OW77449   9.076   2.473   4.876
24201SOL    HW177450   9.041   2.403   4.932
24201SOL    HW277451   9.166   2.447   4.858
24202SOL     OW77452   7.670   3.387   5.500
24202SOL    HW177453   7.718   3.449   5.445
24202SOL    HW277454   7.730   3.313   5.510
24203SOL     OW77455   8.007   2.359   4.906
24203SOL    HW177456   8.014   2.263   4.902
24203SOL    HW277457   8.064   2.390   4.836
24204SOL     OW77458   8.315   3.545   5.204
24204SOL    HW177459   8.328   3.496   5.123
24204SOL    HW277460   8.345   3.634   5.184
24205SOL     OW77461   7.545   2.980   5.147
24205SOL    HW177462   7.591   2.979   5.231
24205SOL    HW277463   7.599   2.925   5.090
24206SOL     OW77464   8.772   2.941   4.951
24206SOL    HW177465   8.772   2.882   4.876
24206SOL    HW277466   8.857   2.985   4.947
24207SOL     OW77467   8.699   2.711   3.990
24207SOL    HW177468   8.644   2.672   4.058
24207SOL    HW277469   8.637   2.758   3.933
24208SOL     OW77470   9.236   3.631   4.896
24208SOL    HW177471   9.298   3.641   4.823
24208SOL    HW277472   9.214   3.538   4.897
24209SOL     OW77473   8.729   3.618   4.877
24209SOL    HW177474   8.816   3.643   4.844
24209SOL    HW277475   8.731   3.523   4.881
24210SOL     OW77476   7.508   3.154   4.716
24210SOL    HW177477   7.525   3.156   4.810
24210SOL    HW277478   7.569   3.088   4.682
24211SOL     OW77479   8.200   3.588   5.533
24211SOL    HW177480   8.236   3.666   5.490
24211SOL    HW277481   8.254   3.516   5.501
24212SOL     OW77482   9.137   2.031   4.194
24212SOL    HW177483   9.209   2.019   4.132
24212SOL    HW277484   9.147   1.960   4.257
24213SOL     OW77485   8.810   3.419   4.210
24213SOL    HW177486   8.860   3.445   4.132
24213SOL    HW277487   8.722   3.403   4.178
24214SOL     OW77488   7.531   3.689   5.587
24214SOL    HW177489   7.499   3.604   5.617
24214SOL    HW277490   7.614   3.701   5.634
24215SOL     OW77491   8.742   2.861   4.434
24215SOL    HW177492   8.812   2.796   4.435
24215SOL    HW277493   8.757   2.911   4.354
24216SOL     OW77494   8.273   3.168   5.132
24216SOL    HW177495   8.205   3.203   5.189
24216SOL    HW277496   8.234   3.088   5.095
24217SOL     OW77497   8.088   3.484   3.779
24217SOL    HW177498   8.175   3.444   3.791
24217SOL    HW277499   8.027   3.414   3.800
24218SOL     OW77500   9.037   3.586   5.137
24218SOL    HW177501   9.106   3.571   5.072
24218SOL    HW277502   9.016   3.679   5.129
24219SOL     OW77503   7.595   2.209   4.421
24219SOL    HW177504   7.645   2.234   4.343
24219SOL    HW277505   7.646   2.243   4.494
24220SOL     OW77506   8.679   3.415   3.726
24220SOL    HW177507   8.666   3.331   3.770
24220SOL    HW277508   8.660   3.397   3.634
24221SOL     OW77509   8.227   2.920   5.023
24221SOL    HW177510   8.182   2.840   5.051
24221SOL    HW277511   8.317   2.909   5.053
24222SOL     OW77512   8.336   2.811   4.051
24222SOL    HW177513   8.383   2.821   3.968
24222SOL    HW277514   8.376   2.734   4.091
24223SOL     OW77515   8.924   3.548   3.757
24223SOL    HW177516   8.842   3.501   3.740
24223SOL    HW277517   8.988   3.505   3.701
24224SOL     OW77518   7.802   3.134   5.243
24224SOL    HW177519   7.813   3.211   5.187
24224SOL    HW277520   7.844   3.063   5.195
24225SOL     OW77521   8.997   3.110   4.984
24225SOL    HW177522   9.092   3.110   5.001
24225SOL    HW277523   8.965   3.189   5.027
24226SOL     OW77524   8.489   2.985   4.452
24226SOL    HW177525   8.433   2.917   4.415
24226SOL    HW277526   8.576   2.946   4.453
24227SOL     OW77527   8.528   2.113   4.679
24227SOL    HW177528   8.549   2.053   4.608
24227SOL    HW277529   8.510   2.056   4.754
24228SOL     OW77530   8.027   3.303   4.201
24228SOL    HW177531   8.061   3.245   4.132
24228SOL    HW277532   8.075   3.385   4.189
24229SOL     OW77533   7.717   3.186   4.001
24229SOL    HW177534   7.624   3.180   4.024
24229SOL    HW277535   7.762   3.134   4.068
24230SOL     OW77536   7.566   2.884   5.440
24230SOL    HW177537   7.494   2.856   5.498
24230SOL    HW277538   7.643   2.841   5.476
24231SOL     OW77539   8.146   2.046   5.163
24231SOL    HW177540   8.231   2.016   5.131
24231SOL    HW277541   8.163   2.081   5.250
24232SOL     OW77542   7.501   2.206   3.810
24232SOL    HW177543   7.459   2.212   3.725
24232SOL    HW277544   7.593   2.226   3.793
24233SOL     OW77545   8.826   2.740   5.135
24233SOL    HW177546   8.784   2.802   5.076
24233SOL    HW277547   8.911   2.723   5.094
24234SOL     OW77548   7.476   2.051   4.045
24234SOL    HW177549   7.479   2.096   3.961
24234SOL    HW277550   7.552   2.085   4.094
24235SOL     OW77551   8.637   3.211   3.925
24235SOL    HW177552   8.562   3.153   3.915
24235SOL    HW277553   8.612   3.271   3.996
24236SOL     OW77554   8.980   3.680   4.774
24236SOL    HW177555   8.979   3.621   4.698
24236SOL    HW277556   9.064   3.662   4.817
24237SOL     OW77557   8.914   3.160   5.348
24237SOL    HW177558   8.894   3.120   5.432
24237SOL    HW277559   9.008   3.145   5.336
24238SOL     OW77560   7.806   3.531   5.307
24238SOL    HW177561   7.735   3.593   5.290
24238SOL    HW277562   7.810   3.477   5.228
24239SOL     OW77563   9.049   2.732   4.962
24239SOL    HW177564   9.062   2.644   4.928
24239SOL    HW277565   9.056   2.789   4.886
24240SOL     OW77566   8.632   2.095   4.265
24240SOL    HW177567   8.714   2.058   4.232
24240SOL    HW277568   8.657   2.178   4.305
24241SOL     OW77569   7.924   2.625   4.275
24241SOL    HW177570   7.941   2.620   4.181
24241SOL    HW277571   7.925   2.534   4.304
24242SOL     OW77572   9.185   2.752   5.202
24242SOL    HW177573   9.278   2.730   5.193
24242SOL    HW277574   9.152   2.752   5.112
24243SOL     OW77575   8.306   3.298   3.786
24243SOL    HW177576   8.333   3.321   3.875
24243SOL    HW277577   8.386   3.267   3.744
24244SOL     OW77578   8.119   3.677   4.545
24244SOL    HW177579   8.175   3.753   4.562
24244SOL    HW277580   8.181   3.605   4.531
24245SOL     OW77581   8.209   2.792   4.634
24245SOL    HW177582   8.292   2.744   4.636
24245SOL    HW277583   8.230   2.877   4.674
24246SOL     OW77584   8.504   2.818   3.822
24246SOL    HW177585   8.529   2.875   3.750
24246SOL    HW277586   8.468   2.740   3.780
24247SOL     OW77587   9.289   3.387   4.638
24247SOL    HW177588   9.269   3.364   4.548
24247SOL    HW277589   9.342   3.315   4.671
24248SOL     OW77590   7.626   3.089   5.614
24248SOL    HW177591   7.595   3.020   5.555
24248SOL    HW277592   7.711   3.114   5.579
24249SOL     OW77593   7.521   3.009   4.379
24249SOL    HW177594   7.571   2.985   4.457
24249SOL    HW277595   7.563   2.959   4.308
24250SOL     OW77596   8.100   3.267   5.325
24250SOL    HW177597   8.115   3.212   5.402
24250SOL    HW277598   8.145   3.349   5.345
24251SOL     OW77599   9.157   3.376   4.886
24251SOL    HW177600   9.185   3.364   4.795
24251SOL    HW277601   9.191   3.300   4.932
24252SOL     OW77602   7.796   2.433   5.050
24252SOL    HW177603   7.824   2.382   5.126
24252SOL    HW277604   7.859   2.410   4.982
24253SOL     OW77605   8.897   2.119   4.824
24253SOL    HW177606   8.976   2.070   4.799
24253SOL    HW277607   8.925   2.172   4.898
24254SOL     OW77608   8.474   1.884   4.839
24254SOL    HW177609   8.422   1.833   4.777
24254SOL    HW277610   8.560   1.842   4.838
24255SOL     OW77611   8.085   3.411   5.002
24255SOL    HW177612   8.065   3.502   5.026
24255SOL    HW277613   8.180   3.409   4.991
24256SOL     OW77614   8.800   1.901   3.917
24256SOL    HW177615   8.847   1.832   3.870
24256SOL    HW277616   8.714   1.863   3.935
24257SOL     OW77617   8.692   2.330   4.392
24257SOL    HW177618   8.662   2.421   4.398
24257SOL    HW277619   8.727   2.311   4.479
24258SOL     OW77620   9.044   2.020   4.550
24258SOL    HW177621   9.097   2.030   4.629
24258SOL    HW277622   9.053   2.104   4.505
24259SOL     OW77623   7.501   2.885   4.074
24259SOL    HW177624   7.587   2.871   4.036
24259SOL    HW277625   7.471   2.797   4.100
24260SOL     OW77626   8.183   3.534   4.155
24260SOL    HW177627   8.238   3.485   4.094
24260SOL    HW277628   8.242   3.558   4.226
24261SOL     OW77629   7.654   2.558   5.756
24261SOL    HW177630   7.662   2.478   5.808
24261SOL    HW277631   7.652   2.528   5.665
24262SOL     OW77632   7.580   2.107   6.659
24262SOL    HW177633   7.655   2.081   6.713
24262SOL    HW277634   7.620   2.136   6.577
24263SOL     OW77635   7.417   2.236   6.362
24263SOL    HW177636   7.356   2.164   6.379
24263SOL    HW277637   7.486   2.197   6.308
24264SOL     OW77638   9.025   3.393   6.275
24264SOL    HW177639   8.973   3.373   6.354
24264SOL    HW277640   8.960   3.394   6.204
24265SOL     OW77641   8.617   2.596   6.270
24265SOL    HW177642   8.666   2.678   6.270
24265SOL    HW277643   8.558   2.604   6.345
24266SOL     OW77644   8.242   2.993   6.702
24266SOL    HW177645   8.254   2.927   6.771
24266SOL    HW277646   8.270   2.949   6.622
24267SOL     OW77647   8.245   2.811   7.423
24267SOL    HW177648   8.328   2.814   7.470
24267SOL    HW277649   8.263   2.756   7.347
24268SOL     OW77650   8.095   2.861   6.342
24268SOL    HW177651   8.181   2.854   6.384
24268SOL    HW277652   8.094   2.790   6.278
24269SOL     OW77653   8.171   3.111   7.368
24269SOL    HW177654   8.220   3.164   7.431
24269SOL    HW277655   8.146   3.033   7.417
24270SOL     OW77656   7.743   3.358   6.662
24270SOL    HW177657   7.680   3.303   6.616
24270SOL    HW277658   7.811   3.376   6.597
24271SOL     OW77659   8.904   3.387   7.005
24271SOL    HW177660   8.951   3.432   7.075
24271SOL    HW277661   8.946   3.301   7.000
24272SOL     OW77662   7.877   2.261   7.089
24272SOL    HW177663   7.956   2.207   7.090
24272SOL    HW277664   7.805   2.198   7.091
24273SOL     OW77665   9.083   2.287   6.280
24273SOL    HW177666   9.048   2.325   6.199
24273SOL    HW277667   9.127   2.359   6.324
24274SOL     OW77668   7.690   3.574   6.053
24274SOL    HW177669   7.696   3.640   6.122
24274SOL    HW277670   7.777   3.572   6.013
24275SOL     OW77671   8.593   3.185   7.212
24275SOL    HW177672   8.688   3.173   7.213
24275SOL    HW277673   8.558   3.097   7.222
24276SOL     OW77674   7.548   3.379   6.193
24276SOL    HW177675   7.608   3.426   6.135
24276SOL    HW277676   7.576   3.288   6.189
24277SOL     OW77677   7.651   2.978   6.458
24277SOL    HW177678   7.651   2.885   6.480
24277SOL    HW277679   7.740   2.995   6.428
24278SOL     OW77680   8.070   3.700   6.951
24278SOL    HW177681   8.044   3.701   7.044
24278SOL    HW277682   8.159   3.735   6.951
24279SOL     OW77683   7.978   2.891   5.722
24279SOL    HW177684   8.023   2.950   5.661
24279SOL    HW277685   8.032   2.893   5.801
24280SOL     OW77686   9.018   1.988   7.004
24280SOL    HW177687   9.083   2.012   6.939
24280SOL    HW277688   8.998   2.071   7.050
24281SOL     OW77689   7.567   2.529   6.178
24281SOL    HW177690   7.580   2.439   6.207
24281SOL    HW277691   7.653   2.558   6.148
24282SOL     OW77692   9.287   3.588   5.907
24282SOL    HW177693   9.357   3.565   5.969
24282SOL    HW277694   9.301   3.681   5.889
24283SOL     OW77695   7.474   3.433   5.689
24283SOL    HW177696   7.546   3.413   5.629
24283SOL    HW277697   7.448   3.348   5.725
24284SOL     OW77698   9.191   2.707   6.278
24284SOL    HW177699   9.280   2.679   6.298
24284SOL    HW277700   9.190   2.718   6.183
24285SOL     OW77701   9.100   2.961   6.024
24285SOL    HW177702   9.185   2.942   5.985
24285SOL    HW277703   9.121   3.012   6.102
24286SOL     OW77704   7.589   2.678   7.142
24286SOL    HW177705   7.680   2.654   7.156
24286SOL    HW277706   7.573   2.750   7.203
24287SOL     OW77707   8.036   3.253   6.330
24287SOL    HW177708   7.988   3.170   6.336
24287SOL    HW277709   8.035   3.275   6.237
24288SOL     OW77710   8.722   3.107   6.934
24288SOL    HW177711   8.739   3.019   6.900
24288SOL    HW277712   8.781   3.115   7.009
24289SOL     OW77713   8.259   1.822   6.085
24289SOL    HW177714   8.313   1.895   6.113
24289SOL    HW277715   8.170   1.846   6.112
24290SOL     OW77716   7.618   2.835   6.845
24290SOL    HW177717   7.704   2.794   6.856
24290SOL    HW277718   7.588   2.806   6.759
24291SOL     OW77719   8.970   2.860   5.801
24291SOL    HW177720   8.916   2.787   5.831
24291SOL    HW277721   9.015   2.891   5.879
24292SOL     OW77722   8.552   3.698   7.144
24292SOL    HW177723   8.598   3.762   7.090
24292SOL    HW277724   8.603   3.617   7.133
24293SOL     OW77725   7.824   2.135   7.425
24293SOL    HW177726   7.869   2.200   7.478
24293SOL    HW277727   7.797   2.068   7.488
24294SOL     OW77728   8.849   3.313   6.486
24294SOL    HW177729   8.839   3.322   6.580
24294SOL    HW277730   8.879   3.223   6.473
24295SOL     OW77731   9.059   3.660   6.133
24295SOL    HW177732   9.059   3.610   6.052
24295SOL    HW277733   9.076   3.595   6.201
24296SOL     OW77734   7.982   2.572   5.843
24296SOL    HW177735   8.020   2.646   5.797
24296SOL    HW277736   8.056   2.514   5.861
24297SOL     OW77737   8.718   2.240   6.522
24297SOL    HW177738   8.633   2.196   6.526
24297SOL    HW277739   8.774   2.190   6.582
24298SOL     OW77740   9.023   3.519   5.894
24298SOL    HW177741   9.118   3.528   5.885
24298SOL    HW277742   8.991   3.514   5.804
24299SOL     OW77743   8.159   2.497   7.088
24299SOL    HW177744   8.173   2.441   7.165
24299SOL    HW277745   8.147   2.436   7.016
24300SOL     OW77746   8.839   2.327   7.256
24300SOL    HW177747   8.847   2.369   7.341
24300SOL    HW277748   8.883   2.243   7.266
24301SOL     OW77749   8.341   2.691   7.186
24301SOL    HW177750   8.426   2.653   7.163
24301SOL    HW277751   8.278   2.626   7.156
24302SOL     OW77752   8.429   2.276   6.803
24302SOL    HW177753   8.379   2.213   6.855
24302SOL    HW277754   8.439   2.233   6.718
24303SOL     OW77755   8.538   2.576   6.003
24303SOL    HW177756   8.561   2.574   6.096
24303SOL    HW277757   8.499   2.490   5.987
24304SOL     OW77758   7.418   2.629   6.489
24304SOL    HW177759   7.512   2.648   6.491
24304SOL    HW277760   7.379   2.697   6.544
24305SOL     OW77761   7.525   3.729   7.173
24305SOL    HW177762   7.518   3.704   7.266
24305SOL    HW277763   7.582   3.662   7.135
24306SOL     OW77764   9.116   2.457   7.423
24306SOL    HW177765   9.103   2.526   7.358
24306SOL    HW277766   9.150   2.383   7.372
24307SOL     OW77767   8.832   2.999   6.097
24307SOL    HW177768   8.919   2.987   6.059
24307SOL    HW277769   8.786   3.056   6.036
24308SOL     OW77770   7.977   2.056   6.495
24308SOL    HW177771   8.011   2.071   6.583
24308SOL    HW277772   8.054   2.033   6.443
24309SOL     OW77773   8.495   3.389   6.058
24309SOL    HW177774   8.415   3.427   6.021
24309SOL    HW277775   8.473   3.369   6.149
24310SOL     OW77776   7.804   3.679   6.516
24310SOL    HW177777   7.848   3.595   6.506
24310SOL    HW277778   7.876   3.742   6.529
24311SOL     OW77779   9.208   2.919   6.469
24311SOL    HW177780   9.204   2.847   6.406
24311SOL    HW277781   9.151   2.891   6.541
24312SOL     OW77782   8.646   3.439   7.088
24312SOL    HW177783   8.631   3.352   7.126
24312SOL    HW277784   8.734   3.434   7.051
24313SOL     OW77785   7.724   2.820   5.832
24313SOL    HW177786   7.806   2.838   5.785
24313SOL    HW277787   7.702   2.730   5.807
24314SOL     OW77788   8.945   2.678   6.398
24314SOL    HW177789   8.948   2.595   6.447
24314SOL    HW277790   9.030   2.683   6.355
24315SOL     OW77791   7.834   3.115   7.383
24315SOL    HW177792   7.816   3.142   7.293
24315SOL    HW277793   7.841   3.020   7.380
24316SOL     OW77794   8.641   3.551   5.868
24316SOL    HW177795   8.575   3.503   5.919
24316SOL    HW277796   8.645   3.504   5.785
24317SOL     OW77797   7.646   2.103   7.070
24317SOL    HW177798   7.571   2.110   7.011
24317SOL    HW277799   7.626   2.027   7.125
24318SOL     OW77800   9.074   3.213   5.644
24318SOL    HW177801   9.098   3.235   5.554
24318SOL    HW277802   9.003   3.149   5.635
24319SOL     OW77803   7.932   3.615   5.933
24319SOL    HW177804   7.990   3.690   5.943
24319SOL    HW277805   7.983   3.553   5.879
24320SOL     OW77806   7.737   3.628   6.819
24320SOL    HW177807   7.807   3.575   6.858
24320SOL    HW277808   7.748   3.616   6.725
24321SOL     OW77809   8.407   3.541   6.471
24321SOL    HW177810   8.495   3.509   6.453
24321SOL    HW277811   8.356   3.514   6.394
24322SOL     OW77812   7.820   2.558   6.069
24322SOL    HW177813   7.830   2.465   6.089
24322SOL    HW277814   7.858   2.569   5.982
24323SOL     OW77815   8.962   2.083   7.300
24323SOL    HW177816   8.952   2.089   7.395
24323SOL    HW277817   8.949   1.990   7.281
24324SOL     OW77818   8.150   2.134   5.720
24324SOL    HW177819   8.234   2.155   5.760
24324SOL    HW277820   8.157   2.041   5.697
24325SOL     OW77821   8.202   2.106   7.359
24325SOL    HW177822   8.282   2.058   7.339
24325SOL    HW277823   8.162   2.057   7.431
24326SOL     OW77824   8.372   3.424   6.787
24326SOL    HW177825   8.413   3.466   6.712
24326SOL    HW277826   8.439   3.365   6.822
24327SOL     OW77827   8.797   2.445   7.009
24327SOL    HW177828   8.829   2.405   7.091
24327SOL    HW277829   8.841   2.530   7.005
24328SOL     OW77830   8.222   3.266   6.545
24328SOL    HW177831   8.307   3.246   6.506
24328SOL    HW277832   8.160   3.254   6.473
24329SOL     OW77833   8.400   2.362   6.479
24329SOL    HW177834   8.368   2.350   6.389
24329SOL    HW277835   8.428   2.274   6.506
24330SOL     OW77836   7.929   2.013   6.150
24330SOL    HW177837   7.885   1.985   6.070
24330SOL    HW277838   8.010   2.054   6.119
24331SOL     OW77839   8.883   3.017   5.589
24331SOL    HW177840   8.907   2.968   5.667
24331SOL    HW277841   8.857   2.951   5.525
24332SOL     OW77842   8.546   2.534   7.084
24332SOL    HW177843   8.533   2.455   7.135
24332SOL    HW277844   8.634   2.525   7.047
24333SOL     OW77845   8.635   3.404   6.340
24333SOL    HW177846   8.672   3.408   6.252
24333SOL    HW277847   8.709   3.381   6.396
24334SOL     OW77848   7.882   3.024   6.312
24334SOL    HW177849   7.954   2.964   6.329
24334SOL    HW277850   7.854   3.004   6.222
24335SOL     OW77851   8.631   3.767   6.178
24335SOL    HW177852   8.710   3.791   6.128
24335SOL    HW277853   8.656   3.687   6.225
24336SOL     OW77854   7.558   2.462   6.972
24336SOL    HW177855   7.648   2.441   6.947
24336SOL    HW277856   7.566   2.535   7.033
24337SOL     OW77857   8.043   2.094   6.764
24337SOL    HW177858   8.101   2.028   6.802
24337SOL    HW277859   7.955   2.069   6.793
24338SOL     OW77860   8.303   2.305   6.229
24338SOL    HW177861   8.339   2.336   6.146
24338SOL    HW277862   8.306   2.209   6.222
24339SOL     OW77863   8.286   1.946   6.418
24339SOL    HW177864   8.320   1.978   6.334
24339SOL    HW277865   8.342   1.872   6.439
24340SOL     OW77866   8.937   3.059   6.428
24340SOL    HW177867   8.881   3.001   6.376
24340SOL    HW277868   9.019   3.062   6.379
24341SOL     OW77869   8.922   2.461   6.579
24341SOL    HW177870   8.878   2.376   6.574
24341SOL    HW277871   8.996   2.446   6.638
24342SOL     OW77872   9.272   2.611   5.916
24342SOL    HW177873   9.332   2.578   5.983
24342SOL    HW277874   9.306   2.575   5.834
24343SOL     OW77875   7.913   3.294   5.762
24343SOL    HW177876   7.843   3.253   5.813
24343SOL    HW277877   7.902   3.258   5.674
24344SOL     OW77878   9.153   3.123   6.242
24344SOL    HW177879   9.246   3.107   6.252
24344SOL    HW277880   9.145   3.218   6.232
24345SOL     OW77881   7.931   2.169   5.890
24345SOL    HW177882   7.878   2.090   5.893
24345SOL    HW277883   8.010   2.144   5.841
24346SOL     OW77884   9.135   3.143   7.133
24346SOL    HW177885   9.196   3.070   7.140
24346SOL    HW277886   9.189   3.221   7.147
24347SOL     OW77887   8.470   3.191   6.889
24347SOL    HW177888   8.420   3.166   6.967
24347SOL    HW277889   8.561   3.171   6.911
24348SOL     OW77890   9.042   3.513   7.213
24348SOL    HW177891   9.062   3.603   7.186
24348SOL    HW277892   9.126   3.467   7.210
24349SOL     OW77893   8.565   3.044   6.669
24349SOL    HW177894   8.526   3.095   6.740
24349SOL    HW277895   8.539   3.092   6.590
24350SOL     OW77896   9.011   2.929   6.673
24350SOL    HW177897   9.009   2.992   6.744
24350SOL    HW277898   8.977   2.977   6.597
24351SOL     OW77899   8.326   2.035   6.923
24351SOL    HW177900   8.358   1.972   6.858
24351SOL    HW277901   8.396   2.040   6.989
24352SOL     OW77902   8.324   2.974   7.165
24352SOL    HW177903   8.281   3.011   7.243
24352SOL    HW277904   8.338   2.882   7.187
24353SOL     OW77905   8.146   2.896   5.946
24353SOL    HW177906   8.115   2.845   6.021
24353SOL    HW277907   8.234   2.862   5.929
24354SOL     OW77908   7.854   2.694   6.844
24354SOL    HW177909   7.925   2.711   6.907
24354SOL    HW277910   7.841   2.600   6.848
24355SOL     OW77911   8.697   2.217   6.888
24355SOL    HW177912   8.740   2.295   6.923
24355SOL    HW277913   8.613   2.248   6.856
24356SOL     OW77914   7.587   3.423   6.948
24356SOL    HW177915   7.601   3.499   6.891
24356SOL    HW277916   7.674   3.385   6.958
24357SOL     OW77917   7.772   2.981   6.059
24357SOL    HW177918   7.770   3.050   5.994
24357SOL    HW277919   7.767   2.900   6.009
24358SOL     OW77920   8.019   2.463   6.464
24358SOL    HW177921   8.064   2.432   6.385
24358SOL    HW277922   8.089   2.478   6.527
24359SOL     OW77923   8.690   3.207   5.964
24359SOL    HW177924   8.761   3.268   5.982
24359SOL    HW277925   8.611   3.253   5.992
24360SOL     OW77926   8.780   3.332   6.762
24360SOL    HW177927   8.834   3.368   6.832
24360SOL    HW277928   8.761   3.242   6.790
24361SOL     OW77929   9.036   2.440   6.033
24361SOL    HW177930   8.965   2.498   6.008
24361SOL    HW277931   9.114   2.477   5.992
24362SOL     OW77932   7.850   3.350   6.914
24362SOL    HW177933   7.822   3.339   6.823
24362SOL    HW277934   7.944   3.363   6.909
24363SOL     OW77935   7.856   2.627   7.194
24363SOL    HW177936   7.922   2.668   7.139
24363SOL    HW277937   7.885   2.536   7.203
24364SOL     OW77938   9.065   2.675   7.257
24364SOL    HW177939   8.976   2.673   7.222
24364SOL    HW277940   9.115   2.723   7.191
24365SOL     OW77941   8.421   1.960   7.312
24365SOL    HW177942   8.479   1.977   7.238
24365SOL    HW277943   8.426   1.865   7.324
24366SOL     OW77944   7.962   1.901   7.341
24366SOL    HW177945   7.910   1.842   7.286
24366SOL    HW277946   7.918   1.986   7.333
24367SOL     OW77947   7.913   2.823   6.598
24367SOL    HW177948   8.001   2.821   6.561
24367SOL    HW277949   7.921   2.780   6.683
24368SOL     OW77950   8.744   2.668   6.607
24368SOL    HW177951   8.789   2.718   6.539
24368SOL    HW277952   8.797   2.589   6.617
24369SOL     OW77953   7.780   2.032   6.834
24369SOL    HW177954   7.753   2.052   6.923
24369SOL    HW277955   7.765   1.938   6.824
24370SOL     OW77956   7.447   3.201   6.854
24370SOL    HW177957   7.476   3.128   6.910
24370SOL    HW277958   7.498   3.276   6.884
24371SOL     OW77959   8.224   2.492   6.643
24371SOL    HW177960   8.286   2.445   6.587
24371SOL    HW277961   8.278   2.547   6.699
24372SOL     OW77962   9.194   2.800   7.467
24372SOL    HW177963   9.149   2.753   7.397
24372SOL    HW277964   9.229   2.731   7.523
24373SOL     OW77965   7.683   1.976   6.286
24373SOL    HW177966   7.753   1.981   6.221
24373SOL    HW277967   7.714   1.913   6.351
24374SOL     OW77968   8.485   2.623   6.515
24374SOL    HW177969   8.567   2.632   6.563
24374SOL    HW277970   8.468   2.529   6.514
24375SOL     OW77971   8.422   3.382   7.290
24375SOL    HW177972   8.408   3.435   7.212
24375SOL    HW277973   8.475   3.308   7.260
24376SOL     OW77974   9.287   3.379   7.154
24376SOL    HW177975   9.340   3.384   7.075
24376SOL    HW277976   9.351   3.385   7.225
24377SOL     OW77977   7.817   2.834   7.379
24377SOL    HW177978   7.883   2.829   7.448
24377SOL    HW277979   7.835   2.759   7.322
24378SOL     OW77980   8.734   2.689   5.631
24378SOL    HW177981   8.660   2.637   5.599
24378SOL    HW277982   8.776   2.723   5.552
24379SOL     OW77983   8.472   3.199   6.449
24379SOL    HW177984   8.482   3.123   6.393
24379SOL    HW277985   8.530   3.265   6.411
24380SOL     OW77986   7.684   2.698   6.527
24380SOL    HW177987   7.766   2.744   6.545
24380SOL    HW277988   7.708   2.605   6.527
24381SOL     OW77989   7.766   2.432   6.553
24381SOL    HW177990   7.748   2.346   6.515
24381SOL    HW277991   7.856   2.451   6.527
24382SOL     OW77992   8.565   2.310   7.242
24382SOL    HW177993   8.537   2.325   7.332
24382SOL    HW277994   8.661   2.310   7.246
24383SOL     OW77995   8.543   2.081   7.086
24383SOL    HW177996   8.544   2.159   7.142
24383SOL    HW277997   8.614   2.096   7.023
24384SOL     OW77998   7.418   3.164   5.768
24384SOL    HW177999   7.483   3.139   5.703
24384SOL    HW278000   7.404   3.085   5.821
24385SOL     OW78001   7.529   3.693   6.500
24385SOL    HW178002   7.498   3.607   6.470
24385SOL    HW278003   7.622   3.680   6.516
24386SOL     OW78004   7.942   3.448   6.495
24386SOL    HW178005   8.021   3.498   6.515
24386SOL    HW278006   7.971   3.379   6.436
24387SOL     OW78007   8.393   2.558   6.857
24387SOL    HW178008   8.449   2.564   6.934
24387SOL    HW278009   8.395   2.465   6.833
24388SOL     OW78010   7.529   2.439   6.694
24388SOL    HW178011   7.620   2.436   6.664
24388SOL    HW278012   7.535   2.447   6.789
24389SOL     OW78013   7.661   2.331   7.324
24389SOL    HW178014   7.729   2.266   7.342
24389SOL    HW278015   7.647   2.325   7.229
24390SOL     OW78016   8.778   2.868   7.233
24390SOL    HW178017   8.761   2.813   7.309
24390SOL    HW278018   8.798   2.807   7.162
24391SOL     OW78019   8.194   2.409   5.885
24391SOL    HW178020   8.278   2.397   5.929
24391SOL    HW278021   8.191   2.336   5.822
24392SOL     OW78022   9.138   2.444   6.755
24392SOL    HW178023   9.133   2.383   6.828
24392SOL    HW278024   9.230   2.444   6.729
24393SOL     OW78025   7.679   3.417   7.366
24393SOL    HW178026   7.756   3.419   7.423
24393SOL    HW278027   7.651   3.325   7.367
24394SOL     OW78028   8.105   2.351   6.854
24394SOL    HW178029   8.091   2.261   6.825
24394SOL    HW278030   8.144   2.395   6.778
24395SOL     OW78031   8.339   3.541   7.068
24395SOL    HW178032   8.362   3.510   6.981
24395SOL    HW278033   8.405   3.607   7.089
24396SOL     OW78034   7.910   2.346   5.662
24396SOL    HW178035   7.959   2.291   5.723
24396SOL    HW278036   7.912   2.433   5.701
24397SOL     OW78037   7.512   2.999   7.035
24397SOL    HW178038   7.539   2.969   7.122
24397SOL    HW278039   7.556   2.940   6.974
24398SOL     OW78040   8.704   2.852   6.809
24398SOL    HW178041   8.724   2.782   6.748
24398SOL    HW278042   8.654   2.915   6.758
24399SOL     OW78043   8.794   2.650   5.895
24399SOL    HW178044   8.709   2.628   5.934
24399SOL    HW278045   8.777   2.653   5.801
24400SOL     OW78046   9.247   3.583   6.773
24400SOL    HW178047   9.292   3.600   6.690
24400SOL    HW278048   9.220   3.492   6.768
24401SOL     OW78049   8.694   3.588   6.688
24401SOL    HW178050   8.779   3.628   6.668
24401SOL    HW278051   8.716   3.498   6.712
24402SOL     OW78052   7.527   3.198   6.573
24402SOL    HW178053   7.504   3.168   6.661
24402SOL    HW278054   7.563   3.121   6.530
24403SOL     OW78055   8.125   3.534   7.239
24403SOL    HW178056   8.166   3.549   7.324
24403SOL    HW278057   8.197   3.537   7.176
24404SOL     OW78058   9.039   2.043   6.057
24404SOL    HW178059   9.127   2.050   6.022
24404SOL    HW278060   9.042   1.964   6.112
24405SOL     OW78061   8.822   3.445   6.062
24405SOL    HW178062   8.900   3.460   6.010
24405SOL    HW278063   8.752   3.489   6.014
24406SOL     OW78064   7.526   3.656   7.440
24406SOL    HW178065   7.559   3.566   7.432
24406SOL    HW278066   7.599   3.705   7.477
24407SOL     OW78067   8.752   2.841   6.299
24407SOL    HW178068   8.826   2.786   6.326
24407SOL    HW278069   8.783   2.886   6.220
24408SOL     OW78070   8.204   3.155   6.992
24408SOL    HW178071   8.238   3.082   7.044
24408SOL    HW278072   8.142   3.199   7.050
24409SOL     OW78073   8.111   3.479   5.774
24409SOL    HW178074   8.146   3.500   5.688
24409SOL    HW278075   8.056   3.401   5.759
24410SOL     OW78076   9.272   2.022   6.555
24410SOL    HW178077   9.310   1.936   6.535
24410SOL    HW278078   9.190   2.024   6.505
24411SOL     OW78079   7.738   2.183   6.446
24411SOL    HW178080   7.705   2.123   6.380
24411SOL    HW278081   7.826   2.151   6.466
24412SOL     OW78082   8.649   3.398   5.633
24412SOL    HW178083   8.631   3.305   5.652
24412SOL    HW278084   8.624   3.409   5.542
24413SOL     OW78085   8.289   2.818   6.907
24413SOL    HW178086   8.327   2.733   6.883
24413SOL    HW278087   8.340   2.847   6.982
24414SOL     OW78088   8.396   2.799   5.905
24414SOL    HW178089   8.436   2.818   5.820
24414SOL    HW278090   8.441   2.720   5.935
24415SOL     OW78091   8.907   3.540   5.637
24415SOL    HW178092   8.835   3.479   5.625
24415SOL    HW278093   8.962   3.528   5.559
24416SOL     OW78094   7.742   3.193   7.131
24416SOL    HW178095   7.814   3.238   7.088
24416SOL    HW278096   7.715   3.125   7.070
24417SOL     OW78097   9.021   3.135   6.874
24417SOL    HW178098   9.071   3.120   6.954
24417SOL    HW278099   9.073   3.199   6.825
24418SOL     OW78100   8.509   2.971   6.299
24418SOL    HW178101   8.486   2.956   6.207
24418SOL    HW278102   8.594   2.929   6.310
24419SOL     OW78103   8.468   2.107   6.573
24419SOL    HW178104   8.421   2.065   6.501
24419SOL    HW278105   8.486   2.036   6.635
24420SOL     OW78106   8.044   3.325   6.069
24420SOL    HW178107   8.113   3.271   6.029
24420SOL    HW278108   7.988   3.349   5.996
24421SOL     OW78109   9.183   2.252   6.971
24421SOL    HW178110   9.262   2.304   6.981
24421SOL    HW278111   9.210   2.176   6.921
24422SOL     OW78112   7.693   3.170   5.872
24422SOL    HW178113   7.680   3.122   5.790
24422SOL    HW278114   7.606   3.202   5.895
24423SOL     OW78115   7.566   2.919   7.297
24423SOL    HW178116   7.497   2.891   7.357
24423SOL    HW278117   7.647   2.892   7.340
24424SOL     OW78118   8.098   2.081   7.092
24424SOL    HW178119   8.176   2.072   7.037
24424SOL    HW278120   8.133   2.084   7.182
24425SOL     OW78121   7.536   2.279   5.754
24425SOL    HW178122   7.581   2.196   5.769
24425SOL    HW278123   7.566   2.307   5.668
24426SOL     OW78124   8.855   2.720   7.008
24426SOL    HW178125   8.794   2.765   6.950
24426SOL    HW278126   8.937   2.718   6.960
24427SOL     OW78127   8.556   3.137   5.722
24427SOL    HW178128   8.551   3.045   5.696
24427SOL    HW278129   8.612   3.137   5.799
24428SOL     OW78130   8.052   2.734   7.026
24428SOL    HW178131   8.121   2.787   6.987
24428SOL    HW278132   8.093   2.650   7.045
24429SOL     OW78133   8.957   3.692   6.640
24429SOL    HW178134   8.996   3.733   6.563
24429SOL    HW278135   9.030   3.648   6.683
24430SOL     OW78136   8.215   2.378   7.328
24430SOL    HW178137   8.282   2.397   7.393
24430SOL    HW278138   8.200   2.283   7.336
24431SOL     OW78139   8.860   3.121   7.178
24431SOL    HW178140   8.844   3.032   7.208
24431SOL    HW278141   8.956   3.128   7.174
24432SOL     OW78142   7.856   3.595   7.221
24432SOL    HW178143   7.809   3.513   7.235
24432SOL    HW278144   7.948   3.570   7.218
24433SOL     OW78145   9.068   2.707   6.836
24433SOL    HW178146   9.095   2.625   6.795
24433SOL    HW278147   9.055   2.768   6.763
24434SOL     OW78148   8.068   2.669   6.146
24434SOL    HW178149   8.122   2.596   6.114
24434SOL    HW278150   7.978   2.639   6.136
24435SOL     OW78151   9.181   2.242   7.259
24435SOL    HW178152   9.186   2.252   7.164
24435SOL    HW278153   9.110   2.178   7.272
24436SOL     OW78154   9.177   2.826   7.059
24436SOL    HW178155   9.263   2.863   7.041
24436SOL    HW278156   9.149   2.786   6.977
24437SOL     OW78157   8.312   3.246   5.667
24437SOL    HW178158   8.397   3.205   5.687
24437SOL    HW278159   8.330   3.304   5.593
24438SOL     OW78160   8.142   3.634   6.527
24438SOL    HW178161   8.164   3.722   6.496
24438SOL    HW278162   8.225   3.586   6.523
24439SOL     OW78163   8.334   2.851   6.481
24439SOL    HW178164   8.378   2.768   6.501
24439SOL    HW278165   8.396   2.897   6.424
24440SOL     OW78166   8.520   2.861   5.661
24440SOL    HW178167   8.474   2.816   5.590
24440SOL    HW278168   8.604   2.816   5.668
24441SOL     OW78169   9.272   3.399   6.436
24441SOL    HW178170   9.200   3.386   6.375
24441SOL    HW278171   9.300   3.310   6.459
24442SOL     OW78172   7.536   3.185   7.414
24442SOL    HW178173   7.554   3.113   7.354
24442SOL    HW278174   7.545   3.147   7.501
24443SOL     OW78175   7.579   3.101   6.217
24443SOL    HW178176   7.596   3.059   6.301
24443SOL    HW278177   7.636   3.056   6.155
24444SOL     OW78178   8.041   3.272   7.180
24444SOL    HW178179   8.074   3.215   7.250
24444SOL    HW278180   8.071   3.360   7.205
24445SOL     OW78181   9.230   2.020   6.828
24445SOL    HW178182   9.252   1.927   6.833
24445SOL    HW278183   9.244   2.043   6.736
24446SOL     OW78184   7.838   2.292   6.119
24446SOL    HW178185   7.867   2.259   6.034
24446SOL    HW278186   7.855   2.220   6.180
24447SOL     OW78187   9.185   3.315   6.740
24447SOL    HW178188   9.207   3.293   6.649
24447SOL    HW278189   9.250   3.268   6.792
24448SOL     OW78190   7.811   2.422   6.876
24448SOL    HW178191   7.850   2.372   6.948
24448SOL    HW278192   7.853   2.387   6.798
24449SOL     OW78193   8.261   3.468   6.248
24449SOL    HW178194   8.263   3.502   6.158
24449SOL    HW278195   8.192   3.402   6.246
24450SOL     OW78196   8.875   2.105   6.695
24450SOL    HW178197   8.897   2.012   6.702
24450SOL    HW278198   8.829   2.125   6.777
24451SOL     OW78199   8.465   1.877   6.733
24451SOL    HW178200   8.429   1.817   6.668
24451SOL    HW278201   8.550   1.838   6.757
24452SOL     OW78202   8.223   3.174   5.935
24452SOL    HW178203   8.207   3.080   5.936
24452SOL    HW278204   8.262   3.191   5.849
24453SOL     OW78205   8.105   3.441   6.847
24453SOL    HW178206   8.083   3.527   6.883
24453SOL    HW278207   8.196   3.450   6.819
24454SOL     OW78208   8.833   1.887   5.781
24454SOL    HW178209   8.884   1.823   5.732
24454SOL    HW278210   8.757   1.837   5.813
24455SOL     OW78211   8.763   2.353   6.273
24455SOL    HW178212   8.723   2.440   6.266
24455SOL    HW278213   8.754   2.331   6.366
24456SOL     OW78214   9.020   2.062   6.448
24456SOL    HW178215   8.974   2.104   6.521
24456SOL    HW278216   9.036   2.133   6.386
24457SOL     OW78217   7.470   2.910   5.905
24457SOL    HW178218   7.559   2.901   5.871
24457SOL    HW278219   7.445   2.822   5.932
24458SOL     OW78220   8.278   3.543   5.980
24458SOL    HW178221   8.226   3.497   5.914
24458SOL    HW278222   8.276   3.635   5.952
24459SOL     OW78223   7.632   2.443   7.584
24459SOL    HW178224   7.576   2.367   7.598
24459SOL    HW278225   7.649   2.444   7.490
24460SOL     OW78226   7.648   2.128   8.451
24460SOL    HW178227   7.678   2.121   8.541
24460SOL    HW278228   7.611   2.042   8.431
24461SOL     OW78229   7.431   2.243   8.135
24461SOL    HW178230   7.408   2.198   8.216
24461SOL    HW278231   7.411   2.179   8.066
24462SOL     OW78232   7.990   3.199   8.598
24462SOL    HW178233   8.020   3.116   8.635
24462SOL    HW278234   8.037   3.266   8.647
24463SOL     OW78235   8.992   3.417   8.133
24463SOL    HW178236   8.958   3.384   8.216
24463SOL    HW278237   9.061   3.355   8.109
24464SOL     OW78238   8.578   2.570   8.149
24464SOL    HW178239   8.636   2.646   8.139
24464SOL    HW278240   8.538   2.583   8.235
24465SOL     OW78241   9.157   2.473   7.692
24465SOL    HW178242   9.153   2.464   7.597
24465SOL    HW278243   9.130   2.388   7.725
24466SOL     OW78244   8.169   2.952   8.476
24466SOL    HW178245   8.194   2.933   8.566
24466SOL    HW278246   8.200   3.042   8.461
24467SOL     OW78247   8.305   2.823   9.350
24467SOL    HW178248   8.344   2.894   9.400
24467SOL    HW278249   8.325   2.744   9.401
24468SOL     OW78250   8.131   2.860   8.083
24468SOL    HW178251   8.208   2.845   8.137
24468SOL    HW278252   8.081   2.927   8.130
24469SOL     OW78253   8.074   3.144   9.283
24469SOL    HW178254   8.148   3.195   9.315
24469SOL    HW278255   8.080   3.060   9.329
24470SOL     OW78256   7.742   3.396   8.522
24470SOL    HW178257   7.695   3.321   8.484
24470SOL    HW278258   7.821   3.404   8.469
24471SOL     OW78259   8.901   3.357   8.856
24471SOL    HW178260   8.958   3.403   8.918
24471SOL    HW278261   8.815   3.360   8.897
24472SOL     OW78262   7.891   2.278   9.004
24472SOL    HW178263   7.974   2.238   8.977
24472SOL    HW278264   7.853   2.215   9.065
24473SOL     OW78265   9.004   2.377   8.126
24473SOL    HW178266   8.909   2.363   8.124
24473SOL    HW278267   9.020   2.440   8.055
24474SOL     OW78268   7.692   3.681   7.857
24474SOL    HW178269   7.709   3.716   7.945
24474SOL    HW278270   7.776   3.644   7.830
24475SOL     OW78271   8.541   3.214   9.151
24475SOL    HW178272   8.585   3.229   9.234
24475SOL    HW278273   8.513   3.122   9.155
24476SOL     OW78274   7.670   3.314   7.996
24476SOL    HW178275   7.715   3.363   8.065
24476SOL    HW278276   7.632   3.239   8.041
24477SOL     OW78277   7.669   2.966   8.360
24477SOL    HW178278   7.633   2.878   8.356
24477SOL    HW278279   7.751   2.956   8.409
24478SOL     OW78280   8.031   3.680   8.861
24478SOL    HW178281   7.953   3.662   8.913
24478SOL    HW278282   8.104   3.668   8.922
24479SOL     OW78283   8.015   2.847   7.575
24479SOL    HW178284   8.089   2.820   7.521
24479SOL    HW278285   8.055   2.879   7.656
24480SOL     OW78286   9.013   2.011   8.858
24480SOL    HW178287   9.088   2.024   8.800
24480SOL    HW278288   9.027   2.073   8.930
24481SOL     OW78289   7.627   2.429   8.099
24481SOL    HW178290   7.572   2.352   8.117
24481SOL    HW278291   7.711   2.407   8.138
24482SOL     OW78292   9.315   3.609   7.812
24482SOL    HW178293   9.387   3.572   7.863
24482SOL    HW278294   9.349   3.694   7.781
24483SOL     OW78295   7.417   3.409   7.534
24483SOL    HW178296   7.459   3.336   7.488
24483SOL    HW278297   7.459   3.410   7.620
24484SOL     OW78298   7.566   2.581   9.006
24484SOL    HW178299   7.658   2.606   9.008
24484SOL    HW278300   7.555   2.523   9.082
24485SOL     OW78301   8.077   3.272   8.182
24485SOL    HW178302   8.035   3.186   8.190
24485SOL    HW278303   8.060   3.299   8.092
24486SOL     OW78304   8.732   3.073   8.833
24486SOL    HW178305   8.767   3.006   8.773
24486SOL    HW278306   8.785   3.063   8.912
24487SOL     OW78307   8.281   1.860   7.982
24487SOL    HW178308   8.329   1.940   7.959
24487SOL    HW278309   8.189   1.886   7.979
24488SOL     OW78310   7.617   2.774   8.722
24488SOL    HW178311   7.708   2.746   8.707
24488SOL    HW278312   7.564   2.703   8.687
24489SOL     OW78313   8.518   3.698   9.061
24489SOL    HW178314   8.568   3.763   9.012
24489SOL    HW278315   8.584   3.648   9.109
24490SOL     OW78316   7.805   2.150   9.270
24490SOL    HW178317   7.847   2.206   9.335
24490SOL    HW278318   7.724   2.121   9.311
24491SOL     OW78319   8.873   3.291   8.354
24491SOL    HW178320   8.941   3.290   8.422
24491SOL    HW278321   8.868   3.201   8.324
24492SOL     OW78322   9.084   3.665   7.978
24492SOL    HW178323   9.138   3.626   7.909
24492SOL    HW278324   9.064   3.593   8.037
24493SOL     OW78325   8.069   2.538   7.697
24493SOL    HW178326   8.141   2.601   7.697
24493SOL    HW278327   8.003   2.576   7.756
24494SOL     OW78328   8.795   2.242   8.382
24494SOL    HW178329   8.703   2.245   8.409
24494SOL    HW278330   8.817   2.149   8.381
24495SOL     OW78331   9.014   3.512   7.705
24495SOL    HW178332   9.105   3.500   7.678
24495SOL    HW278333   8.967   3.529   7.623
24496SOL     OW78334   8.260   2.499   8.932
24496SOL    HW178335   8.241   2.476   9.023
24496SOL    HW278336   8.288   2.417   8.891
24497SOL     OW78337   8.808   2.313   9.048
24497SOL    HW178338   8.791   2.373   9.121
24497SOL    HW278339   8.853   2.239   9.088
24498SOL     OW78340   8.468   2.686   9.025
24498SOL    HW178341   8.531   2.649   9.086
24498SOL    HW278342   8.400   2.619   9.017
24499SOL     OW78343   8.486   2.538   7.890
24499SOL    HW178344   8.513   2.537   7.982
24499SOL    HW278345   8.418   2.470   7.884
24500SOL     OW78346   7.492   2.728   8.167
24500SOL    HW178347   7.563   2.706   8.227
24500SOL    HW278348   7.435   2.786   8.216
24501SOL     OW78349   7.533   3.695   9.058
24501SOL    HW178350   7.559   3.703   9.149
24501SOL    HW278351   7.476   3.618   9.056
24502SOL     OW78352   8.362   2.199   7.634
24502SOL    HW178353   8.411   2.262   7.581
24502SOL    HW278354   8.361   2.119   7.581
24503SOL     OW78355   9.275   2.453   9.258
24503SOL    HW178356   9.216   2.525   9.234
24503SOL    HW278357   9.246   2.379   9.204
24504SOL     OW78358   7.995   2.119   8.344
24504SOL    HW178359   7.984   2.080   8.431
24504SOL    HW278360   8.090   2.123   8.332
24505SOL     OW78361   8.415   3.331   7.947
24505SOL    HW178362   8.407   3.400   7.881
24505SOL    HW278363   8.498   3.288   7.927
24506SOL     OW78364   7.788   3.685   8.336
24506SOL    HW178365   7.837   3.604   8.342
24506SOL    HW278366   7.850   3.753   8.364
24507SOL     OW78367   9.218   2.947   8.274
24507SOL    HW178368   9.157   2.953   8.200
24507SOL    HW278369   9.162   2.937   8.351
24508SOL     OW78370   8.634   3.364   8.933
24508SOL    HW178371   8.619   3.320   9.017
24508SOL    HW278372   8.593   3.307   8.868
24509SOL     OW78373   7.775   2.808   7.740
24509SOL    HW178374   7.844   2.819   7.675
24509SOL    HW278375   7.786   2.718   7.771
24510SOL     OW78376   8.966   2.647   8.236
24510SOL    HW178377   8.995   2.557   8.220
24510SOL    HW278378   9.011   2.699   8.169
24511SOL     OW78379   7.809   3.057   9.243
24511SOL    HW178380   7.775   3.096   9.162
24511SOL    HW278381   7.902   3.078   9.242
24512SOL     OW78382   8.539   3.654   7.604
24512SOL    HW178383   8.488   3.610   7.672
24512SOL    HW278384   8.580   3.583   7.554
24513SOL     OW78385   7.593   2.124   8.979
24513SOL    HW178386   7.505   2.152   9.003
24513SOL    HW278387   7.594   2.030   8.997
24514SOL     OW78388   7.954   3.598   7.819
24514SOL    HW178389   7.986   3.655   7.889
24514SOL    HW278390   7.972   3.509   7.850
24515SOL     OW78391   8.842   1.956   7.895
24515SOL    HW178392   8.834   1.924   7.805
24515SOL    HW278393   8.924   1.917   7.926
24516SOL     OW78394   7.717   3.609   8.699
24516SOL    HW178395   7.779   3.584   8.767
24516SOL    HW278396   7.727   3.542   8.631
24517SOL     OW78397   7.831   2.565   7.866
24517SOL    HW178398   7.829   2.470   7.873
24517SOL    HW278399   7.852   2.595   7.955
24518SOL     OW78400   8.935   2.078   9.140
24518SOL    HW178401   8.912   2.053   9.229
24518SOL    HW278402   8.903   2.005   9.086
24519SOL     OW78403   8.101   1.940   7.570
24519SOL    HW178404   8.137   1.857   7.602
24519SOL    HW278405   8.047   1.916   7.496
24520SOL     OW78406   8.234   2.132   9.209
24520SOL    HW178407   8.315   2.095   9.175
24520SOL    HW278408   8.200   2.066   9.269
24521SOL     OW78409   8.453   3.346   8.545
24521SOL    HW178410   8.370   3.314   8.510
24521SOL    HW278411   8.459   3.305   8.632
24522SOL     OW78412   8.273   3.199   8.380
24522SOL    HW178413   8.356   3.206   8.332
24522SOL    HW278414   8.206   3.227   8.318
24523SOL     OW78415   8.367   2.380   8.328
24523SOL    HW178416   8.352   2.341   8.242
24523SOL    HW278417   8.429   2.322   8.371
24524SOL     OW78418   8.015   1.926   7.942
24524SOL    HW178419   7.937   1.924   7.998
24524SOL    HW278420   8.000   2.000   7.884
24525SOL     OW78421   7.767   1.954   7.639
24525SOL    HW178422   7.823   2.016   7.686
24525SOL    HW278423   7.799   1.868   7.666
24526SOL     OW78424   8.413   2.093   7.894
24526SOL    HW178425   8.394   2.118   7.803
24526SOL    HW278426   8.506   2.108   7.904
24527SOL     OW78427   8.678   3.463   8.204
24527SOL    HW178428   8.670   3.554   8.177
24527SOL    HW278429   8.757   3.432   8.160
24528SOL     OW78430   7.943   3.026   8.201
24528SOL    HW178431   7.928   2.985   8.286
24528SOL    HW278432   7.869   2.997   8.147
24529SOL     OW78433   8.702   3.732   8.129
24529SOL    HW178434   8.737   3.748   8.041
24529SOL    HW278435   8.770   3.765   8.188
24530SOL     OW78436   8.498   2.409   7.496
24530SOL    HW178437   8.512   2.501   7.474
24530SOL    HW278438   8.560   2.392   7.567
24531SOL     OW78439   7.558   2.406   8.790
24531SOL    HW178440   7.651   2.388   8.776
24531SOL    HW278441   7.556   2.462   8.867
24532SOL     OW78442   7.971   1.992   8.596
24532SOL    HW178443   8.018   1.963   8.674
24532SOL    HW278444   7.887   2.023   8.629
24533SOL     OW78445   8.313   2.285   8.075
24533SOL    HW178446   8.280   2.324   7.994
24533SOL    HW278447   8.353   2.202   8.047
24534SOL     OW78448   8.519   1.903   8.215
24534SOL    HW178449   8.426   1.897   8.192
24534SOL    HW278450   8.520   1.955   8.295
24535SOL     OW78451   8.851   3.039   8.253
24535SOL    HW178452   8.790   2.967   8.240
24535SOL    HW278453   8.921   3.024   8.190
24536SOL     OW78454   8.865   2.400   8.604
24536SOL    HW178455   8.859   2.351   8.523
24536SOL    HW278456   8.959   2.412   8.619
24537SOL     OW78457   9.288   2.688   7.797
24537SOL    HW178458   9.338   2.651   7.870
24537SOL    HW278459   9.245   2.613   7.757
24538SOL     OW78460   7.872   3.331   7.547
24538SOL    HW178461   7.806   3.315   7.614
24538SOL    HW278462   7.875   3.250   7.496
24539SOL     OW78463   9.177   3.218   8.084
24539SOL    HW178464   9.119   3.142   8.080
24539SOL    HW278465   9.265   3.182   8.072
24540SOL     OW78466   8.838   2.451   7.504
24540SOL    HW178467   8.800   2.415   7.584
24540SOL    HW278468   8.933   2.441   7.516
24541SOL     OW78469   7.970   2.116   7.742
24541SOL    HW178470   8.032   2.064   7.690
24541SOL    HW278471   7.961   2.197   7.693
24542SOL     OW78472   9.196   3.078   8.962
24542SOL    HW178473   9.283   3.041   8.945
24542SOL    HW278474   9.214   3.161   9.007
24543SOL     OW78475   8.490   3.181   8.768
24543SOL    HW178476   8.419   3.146   8.823
24543SOL    HW278477   8.568   3.133   8.796
24544SOL     OW78478   9.081   3.490   9.027
24544SOL    HW178479   9.145   3.424   9.054
24544SOL    HW278480   9.031   3.509   9.107
24545SOL     OW78481   8.600   3.079   8.520
24545SOL    HW178482   8.534   3.105   8.584
24545SOL    HW278483   8.556   3.088   8.435
24546SOL     OW78484   9.066   2.953   8.518
24546SOL    HW178485   9.077   3.017   8.588
24546SOL    HW278486   8.973   2.929   8.523
24547SOL     OW78487   8.420   2.946   9.126
24547SOL    HW178488   8.379   2.917   9.208
24547SOL    HW278489   8.451   2.866   9.085
24548SOL     OW78490   8.152   2.904   7.812
24548SOL    HW178491   8.145   2.891   7.907
24548SOL    HW278492   8.216   2.839   7.784
24549SOL     OW78493   7.868   2.666   8.670
24549SOL    HW178494   7.935   2.680   8.737
24549SOL    HW278495   7.848   2.573   8.675
24550SOL     OW78496   7.549   3.402   8.807
24550SOL    HW178497   7.556   3.488   8.765
24550SOL    HW278498   7.639   3.372   8.817
24551SOL     OW78499   7.790   2.977   7.959
24551SOL    HW178500   7.877   3.009   7.936
24551SOL    HW278501   7.771   2.910   7.894
24552SOL     OW78502   7.920   2.499   8.342
24552SOL    HW178503   7.945   2.540   8.259
24552SOL    HW278504   8.002   2.491   8.391
24553SOL     OW78505   8.650   3.216   7.871
24553SOL    HW178506   8.722   3.279   7.877
24553SOL    HW278507   8.691   3.131   7.886
24554SOL     OW78508   8.755   3.310   8.628
24554SOL    HW178509   8.813   3.328   8.701
24554SOL    HW278510   8.733   3.217   8.636
24555SOL     OW78511   9.014   2.564   7.929
24555SOL    HW178512   8.990   2.656   7.934
24555SOL    HW278513   9.065   2.556   7.849
24556SOL     OW78514   7.814   3.334   8.793
24556SOL    HW178515   7.808   3.318   8.699
24556SOL    HW278516   7.907   3.353   8.808
24557SOL     OW78517   7.842   2.609   9.042
24557SOL    HW178518   7.912   2.646   8.987
24557SOL    HW278519   7.868   2.518   9.055
24558SOL     OW78520   9.088   2.648   9.181
24558SOL    HW178521   8.993   2.662   9.175
24558SOL    HW278522   9.123   2.690   9.102
24559SOL     OW78523   8.457   2.036   9.084
24559SOL    HW178524   8.466   2.121   9.041
24559SOL    HW278525   8.524   1.981   9.041
24560SOL     OW78526   7.955   1.916   9.200
24560SOL    HW178527   7.895   1.860   9.150
24560SOL    HW278528   7.905   1.995   9.218
24561SOL     OW78529   7.910   2.855   8.455
24561SOL    HW178530   8.001   2.882   8.463
24561SOL    HW278531   7.897   2.791   8.525
24562SOL     OW78532   8.827   2.669   8.478
24562SOL    HW178533   8.881   2.659   8.400
24562SOL    HW278534   8.835   2.584   8.523
24563SOL     OW78535   8.659   2.382   7.716
24563SOL    HW178536   8.672   2.304   7.770
24563SOL    HW278537   8.623   2.447   7.778
24564SOL     OW78538   7.715   2.053   8.714
24564SOL    HW178539   7.689   2.091   8.797
24564SOL    HW278540   7.695   1.960   8.722
24565SOL     OW78541   7.473   3.150   8.711
24565SOL    HW178542   7.507   3.087   8.775
24565SOL    HW278543   7.488   3.235   8.751
24566SOL     OW78544   8.168   2.503   8.464
24566SOL    HW178545   8.229   2.450   8.414
24566SOL    HW278546   8.222   2.574   8.499
24567SOL     OW78547   9.201   2.848   9.340
24567SOL    HW178548   9.166   2.774   9.290
24567SOL    HW278549   9.133   2.866   9.406
24568SOL     OW78550   7.773   1.929   8.079
24568SOL    HW178551   7.761   2.016   8.115
24568SOL    HW278552   7.778   1.872   8.155
24569SOL     OW78553   9.036   2.245   7.798
24569SOL    HW178554   9.092   2.182   7.842
24569SOL    HW278555   8.986   2.287   7.868
24570SOL     OW78556   8.446   2.626   8.414
24570SOL    HW178557   8.484   2.625   8.502
24570SOL    HW278558   8.428   2.534   8.395
24571SOL     OW78559   8.389   3.443   9.144
24571SOL    HW178560   8.456   3.511   9.143
24571SOL    HW278561   8.438   3.361   9.134
24572SOL     OW78562   9.297   3.324   9.045
24572SOL    HW178563   9.343   3.351   8.966
24572SOL    HW278564   9.361   3.332   9.115
24573SOL     OW78565   7.721   2.754   9.266
24573SOL    HW178566   7.707   2.679   9.323
24573SOL    HW278567   7.775   2.720   9.195
24574SOL     OW78568   8.926   2.117   7.567
24574SOL    HW178569   8.883   2.037   7.599
24574SOL    HW278570   8.965   2.155   7.646
24575SOL     OW78571   8.735   2.704   7.456
24575SOL    HW178572   8.773   2.617   7.467
24575SOL    HW278573   8.760   2.751   7.535
24576SOL     OW78574   8.528   3.222   8.266
24576SOL    HW178575   8.541   3.136   8.226
24576SOL    HW278576   8.552   3.284   8.197
24577SOL     OW78577   7.688   2.683   8.348
24577SOL    HW178578   7.780   2.705   8.366
24577SOL    HW278579   7.682   2.590   8.368
24578SOL     OW78580   7.674   2.406   8.414
24578SOL    HW178581   7.665   2.312   8.431
24578SOL    HW278582   7.767   2.419   8.398
24579SOL     OW78583   7.439   3.135   7.684
24579SOL    HW178584   7.344   3.149   7.694
24579SOL    HW278585   7.453   3.044   7.711
24580SOL     OW78586   7.517   3.621   8.387
24580SOL    HW178587   7.500   3.540   8.337
24580SOL    HW278588   7.611   3.633   8.381
24581SOL     OW78589   7.946   3.457   8.344
24581SOL    HW178590   8.016   3.521   8.354
24581SOL    HW278591   7.987   3.383   8.299
24582SOL     OW78592   8.398   2.667   8.749
24582SOL    HW178593   8.463   2.687   8.816
24582SOL    HW278594   8.347   2.595   8.787
24583SOL     OW78595   7.471   2.519   8.561
24583SOL    HW178596   7.534   2.486   8.496
24583SOL    HW278597   7.497   2.477   8.643
24584SOL     OW78598   7.633   2.357   9.174
24584SOL    HW178599   7.711   2.312   9.206
24584SOL    HW278600   7.605   2.306   9.098
24585SOL     OW78601   8.836   2.762   9.100
24585SOL    HW178602   8.852   2.856   9.102
24585SOL    HW278603   8.836   2.740   9.007
24586SOL     OW78604   8.263   2.379   7.821
24586SOL    HW178605   8.293   2.311   7.761
24586SOL    HW278606   8.192   2.423   7.774
24587SOL     OW78607   9.141   2.448   8.663
24587SOL    HW178608   9.157   2.393   8.739
24587SOL    HW278609   9.228   2.468   8.628
24588SOL     OW78610   7.688   3.412   9.163
24588SOL    HW178611   7.700   3.411   9.258
24588SOL    HW278612   7.716   3.325   9.135
24589SOL     OW78613   8.087   2.343   8.678
24589SOL    HW178614   8.165   2.306   8.718
24589SOL    HW278615   8.119   2.388   8.600
24590SOL     OW78616   8.391   3.591   8.837
24590SOL    HW178617   8.420   3.500   8.842
24590SOL    HW278618   8.421   3.630   8.919
24591SOL     OW78619   7.902   2.340   7.598
24591SOL    HW178620   7.969   2.406   7.615
24591SOL    HW278621   7.819   2.386   7.611
24592SOL     OW78622   7.579   2.980   8.901
24592SOL    HW178623   7.555   2.940   8.984
24592SOL    HW278624   7.596   2.906   8.842
24593SOL     OW78625   8.788   2.902   8.612
24593SOL    HW178626   8.792   2.822   8.560
24593SOL    HW278627   8.723   2.956   8.568
24594SOL     OW78628   8.562   2.809   7.825
24594SOL    HW178629   8.562   2.720   7.860
24594SOL    HW278630   8.650   2.821   7.790
24595SOL     OW78631   9.235   3.557   8.632
24595SOL    HW178632   9.288   3.592   8.560
24595SOL    HW278633   9.184   3.487   8.592
24596SOL     OW78634   8.692   3.580   8.528
24596SOL    HW178635   8.770   3.622   8.492
24596SOL    HW278636   8.725   3.531   8.604
24597SOL     OW78637   7.520   3.183   8.445
24597SOL    HW178638   7.515   3.166   8.539
24597SOL    HW278639   7.566   3.107   8.409
24598SOL     OW78640   8.132   3.535   9.110
24598SOL    HW178641   8.102   3.572   9.193
24598SOL    HW278642   8.224   3.515   9.124
24599SOL     OW78643   9.197   2.065   7.932
24599SOL    HW178644   9.255   2.048   7.858
24599SOL    HW278645   9.166   1.978   7.958
24600SOL     OW78646   8.851   3.399   7.896
24600SOL    HW178647   8.903   3.439   7.826
24600SOL    HW278648   8.905   3.408   7.975
24601SOL     OW78649   7.617   3.691   9.316
24601SOL    HW178650   7.586   3.606   9.347
24601SOL    HW278651   7.676   3.721   9.384
24602SOL     OW78652   8.752   2.787   8.129
24602SOL    HW178653   8.811   2.739   8.186
24602SOL    HW278654   8.805   2.807   8.051
24603SOL     OW78655   8.290   3.080   8.926
24603SOL    HW178656   8.331   3.038   9.001
24603SOL    HW278657   8.227   3.142   8.964
24604SOL     OW78658   8.109   3.472   7.572
24604SOL    HW178659   8.177   3.407   7.555
24604SOL    HW278660   8.027   3.422   7.565
24605SOL     OW78661   9.259   2.045   8.444
24605SOL    HW178662   9.291   1.962   8.410
24605SOL    HW278663   9.197   2.075   8.378
24606SOL     OW78664   7.776   2.183   8.196
24606SOL    HW178665   7.712   2.173   8.267
24606SOL    HW278666   7.861   2.169   8.238
24607SOL     OW78667   8.636   3.430   7.471
24607SOL    HW178668   8.634   3.346   7.516
24607SOL    HW278669   8.574   3.420   7.399
24608SOL     OW78670   8.230   2.887   8.735
24608SOL    HW178671   8.297   2.819   8.738
24608SOL    HW278672   8.255   2.948   8.804
24609SOL     OW78673   8.301   2.689   7.729
24609SOL    HW178674   8.361   2.723   7.662
24609SOL    HW278675   8.358   2.645   7.792
24610SOL     OW78676   8.887   3.555   7.462
24610SOL    HW178677   8.808   3.503   7.452
24610SOL    HW278678   8.940   3.536   7.385
24611SOL     OW78679   7.732   3.182   9.010
24611SOL    HW178680   7.773   3.229   8.938
24611SOL    HW278681   7.684   3.111   8.968
24612SOL     OW78682   9.050   3.150   8.732
24612SOL    HW178683   9.107   3.113   8.799
24612SOL    HW278684   8.987   3.204   8.781
24613SOL     OW78685   8.541   2.967   8.179
24613SOL    HW178686   8.465   2.913   8.201
24613SOL    HW278687   8.605   2.905   8.144
24614SOL     OW78688   7.987   3.340   7.912
24614SOL    HW178689   8.063   3.293   7.880
24614SOL    HW278690   7.912   3.292   7.877
24615SOL     OW78691   9.234   2.276   8.866
24615SOL    HW178692   9.320   2.312   8.888
24615SOL    HW278693   9.253   2.200   8.812
24616SOL     OW78694   7.662   3.290   7.724
24616SOL    HW178695   7.589   3.229   7.714
24616SOL    HW278696   7.671   3.303   7.819
24617SOL     OW78697   7.494   2.891   9.154
24617SOL    HW178698   7.427   2.867   9.219
24617SOL    HW278699   7.575   2.855   9.189
24618SOL     OW78700   8.127   2.130   8.947
24618SOL    HW178701   8.195   2.168   8.891
24618SOL    HW278702   8.165   2.131   9.035
24619SOL     OW78703   7.481   2.214   7.501
24619SOL    HW178704   7.406   2.191   7.446
24619SOL    HW278705   7.548   2.244   7.440
24620SOL     OW78706   8.849   2.737   8.829
24620SOL    HW178707   8.814   2.791   8.758
24620SOL    HW278708   8.938   2.716   8.801
24621SOL     OW78709   7.502   2.021   7.707
24621SOL    HW178710   7.491   2.086   7.638
24621SOL    HW278711   7.593   1.992   7.699
24622SOL     OW78712   8.586   3.187   7.601
24622SOL    HW178713   8.651   3.121   7.577
24622SOL    HW278714   8.598   3.199   7.695
24623SOL     OW78715   8.059   2.686   8.869
24623SOL    HW178716   8.114   2.757   8.838
24623SOL    HW278717   8.120   2.616   8.891
24624SOL     OW78718   8.928   3.679   8.425
24624SOL    HW178719   8.965   3.754   8.377
24624SOL    HW278720   8.993   3.610   8.413
24625SOL     OW78721   8.230   2.411   9.188
24625SOL    HW178722   8.303   2.430   9.248
24625SOL    HW278723   8.222   2.316   9.191
24626SOL     OW78724   8.909   3.040   9.052
24626SOL    HW178725   8.899   3.051   9.147
24626SOL    HW278726   9.004   3.045   9.037
24627SOL     OW78727   7.801   3.622   9.012
24627SOL    HW178728   7.713   3.660   9.012
24627SOL    HW278729   7.792   3.541   9.063
24628SOL     OW78730   9.098   2.721   8.708
24628SOL    HW178731   9.117   2.630   8.686
24628SOL    HW278732   9.116   2.769   8.626
24629SOL     OW78733   8.679   2.179   7.904
24629SOL    HW178734   8.737   2.102   7.903
24629SOL    HW278735   8.700   2.223   7.987
24630SOL     OW78736   7.980   2.625   8.094
24630SOL    HW178737   8.031   2.706   8.095
24630SOL    HW278738   8.041   2.559   8.060
24631SOL     OW78739   9.184   2.221   9.133
24631SOL    HW178740   9.198   2.240   9.041
24631SOL    HW278741   9.101   2.174   9.136
24632SOL     OW78742   9.157   2.796   8.966
24632SOL    HW178743   9.163   2.892   8.961
24632SOL    HW278744   9.146   2.768   8.875
24633SOL     OW78745   8.318   3.291   7.525
24633SOL    HW178746   8.393   3.250   7.569
24633SOL    HW278747   8.356   3.329   7.445
24634SOL     OW78748   8.128   3.658   8.340
24634SOL    HW178749   8.095   3.748   8.349
24634SOL    HW278750   8.221   3.669   8.322
24635SOL     OW78751   8.320   2.827   8.279
24635SOL    HW178752   8.366   2.754   8.320
24635SOL    HW278753   8.269   2.867   8.350
24636SOL     OW78754   8.489   2.798   7.552
24636SOL    HW178755   8.567   2.774   7.501
24636SOL    HW278756   8.524   2.831   7.635
24637SOL     OW78757   9.315   3.393   8.267
24637SOL    HW178758   9.272   3.354   8.191
24637SOL    HW278759   9.328   3.319   8.327
24638SOL     OW78760   7.580   3.079   8.116
24638SOL    HW178761   7.601   3.041   8.202
24638SOL    HW278762   7.638   3.034   8.055
24639SOL     OW78763   8.109   3.270   9.034
24639SOL    HW178764   8.088   3.217   9.111
24639SOL    HW278765   8.111   3.360   9.066
24640SOL     OW78766   9.248   2.041   8.718
24640SOL    HW178767   9.317   1.977   8.735
24640SOL    HW278768   9.246   2.050   8.623
24641SOL     OW78769   7.860   2.297   7.939
24641SOL    HW178770   7.902   2.228   7.888
24641SOL    HW278771   7.832   2.255   8.020
24642SOL     OW78772   9.103   3.331   8.531
24642SOL    HW178773   9.173   3.287   8.483
24642SOL    HW278774   9.082   3.273   8.604
24643SOL     OW78775   7.833   2.396   8.763
24643SOL    HW178776   7.843   2.359   8.850
24643SOL    HW278777   7.914   2.372   8.718
24644SOL     OW78778   8.324   3.498   8.152
24644SOL    HW178779   8.363   3.440   8.086
24644SOL    HW278780   8.247   3.450   8.183
24645SOL     OW78781   8.193   3.185   7.842
24645SOL    HW178782   8.203   3.092   7.822
24645SOL    HW278783   8.279   3.212   7.876
24646SOL     OW78784   8.085   3.387   8.782
24646SOL    HW178785   8.110   3.479   8.789
24646SOL    HW278786   8.112   3.349   8.865
24647SOL     OW78787   8.806   1.873   7.633
24647SOL    HW178788   8.852   1.804   7.584
24647SOL    HW278789   8.715   1.844   7.636
24648SOL     OW78790   8.732   2.334   8.128
24648SOL    HW178791   8.673   2.409   8.136
24648SOL    HW278792   8.741   2.301   8.217
24649SOL     OW78793   9.089   2.138   8.245
24649SOL    HW178794   9.064   2.082   8.172
24649SOL    HW278795   9.053   2.224   8.223
24650SOL     OW78796   7.500   2.876   7.765
24650SOL    HW178797   7.595   2.878   7.752
24650SOL    HW278798   7.478   2.783   7.760
24651SOL     OW78799   8.347   3.527   7.763
24651SOL    HW178800   8.278   3.488   7.710
24651SOL    HW278801   8.307   3.605   7.802
24652SOL     OW78802   7.636   2.516   9.412
24652SOL    HW178803   7.553   2.498   9.457
24652SOL    HW278804   7.630   2.466   9.330
24653SOL     OW78805   9.185   2.494   9.523
24653SOL    HW178806   9.199   2.459   9.435
24653SOL    HW278807   9.137   2.425   9.569
24654SOL     OW78808   7.699   3.594   9.815
24654SOL    HW178809   7.715   3.671   9.869
24654SOL    HW278810   7.777   3.586   9.761
24655SOL     OW78811   7.700   3.283   9.765
24655SOL    HW178812   7.675   3.368   9.802
24655SOL    HW278813   7.656   3.219   9.819
24656SOL     OW78814   8.012   2.909   9.430
24656SOL    HW178815   8.055   2.835   9.386
24656SOL    HW278816   8.062   2.921   9.510
24657SOL     OW78817   7.504   2.579   9.847
24657SOL    HW178818   7.512   2.487   9.872
24657SOL    HW278819   7.502   2.626   9.930
24658SOL     OW78820   9.285   3.620   9.645
24658SOL    HW178821   9.254   3.540   9.688
24658SOL    HW278822   9.376   3.628   9.672
24659SOL     OW78823   7.530   3.449   9.423
24659SOL    HW178824   7.489   3.363   9.427
24659SOL    HW278825   7.507   3.491   9.506
24660SOL     OW78826   9.128   2.738   9.856
24660SOL    HW178827   9.200   2.746   9.918
24660SOL    HW278828   9.115   2.827   9.823
24661SOL     OW78829   9.125   3.001   9.747
24661SOL    HW178830   9.215   3.012   9.718
24661SOL    HW278831   9.102   3.083   9.789
24662SOL     OW78832   8.068   3.172   0.016
24662SOL    HW178833   7.980   3.175   0.054
24662SOL    HW278834   8.066   3.237   9.946
24663SOL     OW78835   8.261   1.903   9.749
24663SOL    HW178836   8.303   1.989   9.760
24663SOL    HW278837   8.172   1.915   9.781
24664SOL     OW78838   8.994   2.891   9.525
24664SOL    HW178839   8.928   2.827   9.554
24664SOL    HW278840   9.031   2.925   9.607
24665SOL     OW78841   8.014   2.569   9.511
24665SOL    HW178842   8.107   2.547   9.506
24665SOL    HW278843   8.002   2.601   9.601
24666SOL     OW78844   8.519   2.569   9.594
24666SOL    HW178845   8.518   2.652   9.642
24666SOL    HW278846   8.429   2.537   9.601
24667SOL     OW78847   7.453   2.733   0.085
24667SOL    HW178848   7.510   2.664   0.119
24667SOL    HW278849   7.451   2.799   0.155
24668SOL     OW78850   8.341   2.225   9.487
24668SOL    HW178851   8.387   2.290   9.433
24668SOL    HW278852   8.308   2.160   9.425
24669SOL     OW78853   8.545   3.320   9.837
24669SOL    HW178854   8.504   3.372   9.767
24669SOL    HW278855   8.472   3.286   9.888
24670SOL     OW78856   7.762   2.739   9.570
24670SOL    HW178857   7.835   2.710   9.625
24670SOL    HW278858   7.717   2.657   9.546
24671SOL     OW78859   8.568   3.670   9.587
24671SOL    HW178860   8.501   3.610   9.619
24671SOL    HW278861   8.634   3.614   9.547
24672SOL     OW78862   9.042   3.258   9.368
24672SOL    HW178863   8.995   3.294   9.443
24672SOL    HW278864   8.992   3.180   9.344
24673SOL     OW78865   7.925   3.574   9.648
24673SOL    HW178866   7.954   3.504   9.707
24673SOL    HW278867   7.984   3.569   9.573
24674SOL     OW78868   8.949   1.969   9.759
24674SOL    HW178869   8.962   1.890   9.706
24674SOL    HW278870   9.037   2.000   9.779
24675SOL     OW78871   8.136   1.957   9.404
24675SOL    HW178872   8.167   1.877   9.445
24675SOL    HW278873   8.069   1.928   9.342
24676SOL     OW78874   7.997   1.957   9.814
24676SOL    HW178875   7.910   1.953   9.852
24676SOL    HW278876   7.988   2.015   9.738
24677SOL     OW78877   8.877   3.042   9.327
24677SOL    HW178878   8.918   2.982   9.389
24677SOL    HW278879   8.792   3.064   9.368
24678SOL     OW78880   7.760   1.915   9.526
24678SOL    HW178881   7.825   1.985   9.541
24678SOL    HW278882   7.801   1.837   9.563
24679SOL     OW78883   8.368   2.165   9.753
24679SOL    HW178884   8.361   2.181   9.659
24679SOL    HW278885   8.462   2.158   9.769
24680SOL     OW78886   8.458   2.443   9.347
24680SOL    HW178887   8.519   2.480   9.284
24680SOL    HW278888   8.475   2.491   9.428
24681SOL     OW78889   8.276   2.361   9.935
24681SOL    HW178890   8.216   2.424   9.895
24681SOL    HW278891   8.290   2.294   9.868
24682SOL     OW78892   9.403   2.656   9.570
24682SOL    HW178893   9.418   2.629   9.661
24682SOL    HW278894   9.320   2.615   9.547
24683SOL     OW78895   7.883   3.326   9.381
24683SOL    HW178896   7.821   3.275   9.434
24683SOL    HW278897   7.946   3.261   9.349
24684SOL     OW78898   8.820   2.457   9.387
24684SOL    HW178899   8.782   2.410   9.462
24684SOL    HW278900   8.896   2.502   9.423
24685SOL     OW78901   7.962   2.100   9.577
24685SOL    HW178902   8.035   2.072   9.521
24685SOL    HW278903   7.942   2.189   9.548
24686SOL     OW78904   8.203   2.951   9.625
24686SOL    HW178905   8.245   2.877   9.669
24686SOL    HW278906   8.269   2.983   9.564
24687SOL     OW78907   7.847   2.924   9.773
24687SOL    HW178908   7.762   2.903   9.734
24687SOL    HW278909   7.902   2.848   9.755
24688SOL     OW78910   9.028   2.477   9.855
24688SOL    HW178911   8.990   2.474   9.943
24688SOL    HW278912   9.059   2.567   9.845
24689SOL     OW78913   8.695   2.353   9.624
24689SOL    HW178914   8.669   2.326   9.712
24689SOL    HW278915   8.643   2.432   9.607
24690SOL     OW78916   7.748   1.967   9.931
24690SOL    HW178917   7.755   2.062   9.945
24690SOL    HW278918   7.754   1.930   0.019
24691SOL     OW78919   9.026   2.267   9.683
24691SOL    HW178920   9.096   2.211   9.716
24691SOL    HW278921   9.024   2.342   9.743
24692SOL     OW78922   8.656   2.588   9.210
24692SOL    HW178923   8.711   2.541   9.274
24692SOL    HW278924   8.713   2.656   9.175
24693SOL     OW78925   7.411   3.195   9.454
24693SOL    HW178926   7.316   3.208   9.459
24693SOL    HW278927   7.423   3.101   9.465
24694SOL     OW78928   8.264   2.477   9.589
24694SOL    HW178929   8.263   2.382   9.580
24694SOL    HW278930   8.212   2.495   9.667
24695SOL     OW78931   7.867   2.341   9.462
24695SOL    HW178932   7.931   2.412   9.471
24695SOL    HW278933   7.782   2.384   9.474
24696SOL     OW78934   8.775   2.733   9.593
24696SOL    HW178935   8.734   2.744   9.678
24696SOL    HW278936   8.712   2.682   9.542
24697SOL     OW78937   9.210   2.065   9.761
24697SOL    HW178938   9.268   2.054   9.686
24697SOL    HW278939   9.258   2.028   9.835
24698SOL     OW78940   8.074   3.521   9.416
24698SOL    HW178941   8.149   3.462   9.412
24698SOL    HW278942   7.998   3.464   9.401
24699SOL     OW78943   8.669   3.530   9.212
24699SOL    HW178944   8.764   3.529   9.209
24699SOL    HW278945   8.646   3.466   9.280
24700SOL     OW78946   8.941   3.499   9.270
24700SOL    HW178947   8.897   3.525   9.351
24700SOL    HW278948   8.985   3.418   9.292
24701SOL     OW78949   7.994   3.347   9.792
24701SOL    HW178950   8.066   3.305   9.745
24701SOL    HW278951   7.918   3.291   9.773
24702SOL     OW78952   7.708   3.159   9.521
24702SOL    HW178953   7.616   3.170   9.496
24702SOL    HW278954   7.714   3.198   9.608
24703SOL     OW78955   7.533   2.143   9.360
24703SOL    HW178956   7.495   2.066   9.317
24703SOL    HW278957   7.502   2.217   9.309
24704SOL     OW78958   7.506   2.000   9.604
24704SOL    HW178959   7.499   2.065   9.533
24704SOL    HW278960   7.596   1.968   9.598
24705SOL     OW78961   8.651   3.317   9.389
24705SOL    HW178962   8.582   3.297   9.452
24705SOL    HW278963   8.727   3.338   9.443
24706SOL     OW78964   8.657   2.144   9.817
24706SOL    HW178965   8.653   2.055   9.853
24706SOL    HW278966   8.632   2.200   9.890
24707SOL     OW78967   8.265   3.325   9.363
24707SOL    HW178968   8.328   3.285   9.423
24707SOL    HW278969   8.318   3.364   9.294
24708SOL     OW78970   7.555   3.083   9.902
24708SOL    HW178971   7.574   3.117   9.989
24708SOL    HW278972   7.543   2.989   9.915
24709SOL     OW78973   7.801   2.240   9.972
24709SOL    HW178974   7.867   2.275   9.912
24709SOL    HW278975   7.821   2.281   0.056
24710SOL     OW78976   8.209   3.227   9.668
24710SOL    HW178977   8.189   3.134   9.670
24710SOL    HW278978   8.292   3.233   9.621
24711SOL     OW78979   8.814   1.976   9.493
24711SOL    HW178980   8.879   1.906   9.504
24711SOL    HW278981   8.730   1.931   9.492
24712SOL     OW78982   7.515   2.939   9.538
24712SOL    HW178983   7.509   2.974   9.627
24712SOL    HW278984   7.481   2.850   9.545
24713SOL     OW78985   8.374   3.497   9.687
24713SOL    HW178986   8.314   3.426   9.660
24713SOL    HW278987   8.317   3.573   9.696
24714SOL     OW78988   7.648   4.391   0.145
24714SOL    HW178989   7.603   4.330   0.086
24714SOL    HW278990   7.721   4.341   0.181
24715SOL     OW78991   7.608   4.052   0.977
24715SOL    HW178992   7.661   4.011   1.045
24715SOL    HW278993   7.534   3.993   0.965
24716SOL     OW78994   7.433   4.140   0.661
24716SOL    HW178995   7.350   4.161   0.704
24716SOL    HW278996   7.414   4.060   0.612
24717SOL     OW78997   8.026   5.037   1.172
24717SOL    HW178998   7.949   5.091   1.153
24717SOL    HW278999   8.093   5.099   1.201
24718SOL     OW79000   9.022   5.295   0.739
24718SOL    HW179001   8.965   5.252   0.803
24718SOL    HW279002   9.023   5.387   0.767
24719SOL     OW79003   8.593   4.429   0.689
24719SOL    HW179004   8.614   4.522   0.686
24719SOL    HW279005   8.548   4.417   0.773
24720SOL     OW79006   9.137   4.317   0.241
24720SOL    HW179007   9.082   4.305   0.163
24720SOL    HW279008   9.139   4.231   0.283
24721SOL     OW79009   8.147   4.853   1.013
24721SOL    HW179010   8.112   4.917   1.075
24721SOL    HW279011   8.242   4.862   1.021
24722SOL     OW79012   8.370   4.425   1.793
24722SOL    HW179013   8.405   4.485   1.859
24722SOL    HW279014   8.386   4.469   1.710
24723SOL     OW79015   8.224   4.737   0.669
24723SOL    HW179016   8.247   4.686   0.747
24723SOL    HW279017   8.303   4.787   0.650
24724SOL     OW79018   8.142   4.846   1.822
24724SOL    HW179019   8.170   4.933   1.851
24724SOL    HW279020   8.098   4.863   1.739
24725SOL     OW79021   7.799   5.184   1.087
24725SOL    HW179022   7.733   5.126   1.047
24725SOL    HW279023   7.841   5.228   1.012
24726SOL     OW79024   8.964   5.186   1.322
24726SOL    HW179025   8.901   5.136   1.374
24726SOL    HW279026   9.027   5.121   1.292
24727SOL     OW79027   7.889   4.163   1.432
24727SOL    HW179028   7.953   4.188   1.365
24727SOL    HW279029   7.882   4.068   1.425
24728SOL     OW79030   9.048   4.191   0.634
24728SOL    HW179031   9.001   4.140   0.700
24728SOL    HW279032   9.140   4.183   0.660
24729SOL     OW79033   7.694   5.374   0.490
24729SOL    HW179034   7.692   5.453   0.544
24729SOL    HW279035   7.781   5.375   0.449
24730SOL     OW79036   8.565   5.025   1.653
24730SOL    HW179037   8.658   5.006   1.664
24730SOL    HW279038   8.521   4.946   1.686
24731SOL     OW79039   7.669   5.142   0.665
24731SOL    HW179040   7.680   5.217   0.606
24731SOL    HW279041   7.598   5.168   0.724
24732SOL     OW79042   7.708   4.820   0.835
24732SOL    HW179043   7.770   4.772   0.890
24732SOL    HW279044   7.661   4.876   0.897
24733SOL     OW79045   7.937   5.580   1.559
24733SOL    HW179046   8.011   5.540   1.604
24733SOL    HW279047   7.975   5.655   1.512
24734SOL     OW79048   8.024   4.680   0.185
24734SOL    HW179049   8.006   4.752   0.124
24734SOL    HW279050   8.086   4.717   0.248
24735SOL     OW79051   8.981   3.889   1.483
24735SOL    HW179052   8.894   3.921   1.505
24735SOL    HW279053   9.040   3.960   1.508
24736SOL     OW79054   7.568   4.377   0.561
24736SOL    HW179055   7.536   4.292   0.592
24736SOL    HW279056   7.565   4.433   0.639
24737SOL     OW79057   9.262   5.465   0.289
24737SOL    HW179058   9.249   5.433   0.378
24737SOL    HW279059   9.322   5.538   0.298
24738SOL     OW79060   7.474   5.278   0.079
24738SOL    HW179061   7.464   5.193   0.121
24738SOL    HW279062   7.476   5.341   0.151
24739SOL     OW79063   9.159   4.637   0.674
24739SOL    HW179064   9.246   4.600   0.689
24739SOL    HW279065   9.171   4.701   0.604
24740SOL     OW79066   9.060   4.870   0.431
24740SOL    HW179067   9.148   4.854   0.397
24740SOL    HW279068   9.073   4.933   0.502
24741SOL     OW79069   7.637   4.478   1.611
24741SOL    HW179070   7.732   4.469   1.606
24741SOL    HW279071   7.623   4.567   1.643
24742SOL     OW79072   8.066   5.130   0.742
24742SOL    HW179073   8.061   5.036   0.761
24742SOL    HW279074   8.041   5.137   0.650
24743SOL     OW79075   8.776   4.991   1.403
24743SOL    HW179076   8.852   4.947   1.366
24743SOL    HW279077   8.784   4.979   1.497
24744SOL     OW79078   8.301   3.796   0.433
24744SOL    HW179079   8.360   3.864   0.465
24744SOL    HW279080   8.215   3.820   0.465
24745SOL     OW79081   7.628   4.698   1.249
24745SOL    HW179082   7.718   4.670   1.266
24745SOL    HW279083   7.608   4.662   1.163
24746SOL     OW79084   8.932   4.715   0.227
24746SOL    HW179085   8.898   4.640   0.277
24746SOL    HW279086   8.978   4.768   0.291
24747SOL     OW79087   8.575   5.554   1.615
24747SOL    HW179088   8.643   5.542   1.549
24747SOL    HW279089   8.602   5.498   1.688
24748SOL     OW79090   7.733   4.072   1.809
24748SOL    HW179091   7.808   4.108   1.857
24748SOL    HW279092   7.740   3.977   1.821
24749SOL     OW79093   8.865   5.161   0.920
24749SOL    HW179094   8.821   5.168   1.004
24749SOL    HW279095   8.847   5.071   0.890
24750SOL     OW79096   9.190   5.407   0.545
24750SOL    HW179097   9.148   5.341   0.599
24750SOL    HW279098   9.149   5.490   0.572
24751SOL     OW79099   8.037   4.416   0.276
24751SOL    HW179100   8.053   4.502   0.239
24751SOL    HW279101   7.983   4.432   0.354
24752SOL     OW79102   8.610   4.172   0.943
24752SOL    HW179103   8.567   4.088   0.954
24752SOL    HW279104   8.699   4.158   0.975
24753SOL     OW79105   8.985   5.442   0.235
24753SOL    HW179106   9.077   5.455   0.259
24753SOL    HW279107   8.988   5.374   0.167
24754SOL     OW79108   8.257   4.329   1.399
24754SOL    HW179109   8.235   4.293   1.485
24754SOL    HW279110   8.292   4.255   1.349
24755SOL     OW79111   8.429   4.579   1.572
24755SOL    HW179112   8.503   4.531   1.535
24755SOL    HW279113   8.387   4.619   1.496
24756SOL     OW79114   8.396   4.148   1.237
24756SOL    HW179115   8.491   4.154   1.243
24756SOL    HW279116   8.380   4.097   1.158
24757SOL     OW79117   8.484   4.407   0.428
24757SOL    HW179118   8.504   4.403   0.522
24757SOL    HW279119   8.407   4.351   0.418
24758SOL     OW79120   7.561   4.580   0.758
24758SOL    HW179121   7.597   4.539   0.837
24758SOL    HW279122   7.606   4.664   0.752
24759SOL     OW79123   7.469   5.586   1.550
24759SOL    HW179124   7.479   5.538   1.633
24759SOL    HW279125   7.558   5.612   1.527
24760SOL     OW79126   8.383   4.079   0.175
24760SOL    HW179127   8.456   4.065   0.236
24760SOL    HW279128   8.357   3.991   0.148
24761SOL     OW79129   8.786   4.858   0.462
24761SOL    HW179130   8.881   4.870   0.457
24761SOL    HW279131   8.750   4.941   0.430
24762SOL     OW79132   7.908   4.000   0.888
24762SOL    HW179133   7.955   3.972   0.967
24762SOL    HW279134   7.957   4.075   0.856
24763SOL     OW79135   8.430   5.146   0.498
24763SOL    HW179136   8.402   5.234   0.473
24763SOL    HW279137   8.439   5.149   0.593
24764SOL     OW79138   7.799   5.553   0.908
24764SOL    HW179139   7.853   5.474   0.910
24764SOL    HW279140   7.861   5.624   0.921
24765SOL     OW79141   9.234   4.808   0.884
24765SOL    HW179142   9.196   4.753   0.816
24765SOL    HW279143   9.162   4.824   0.945
24766SOL     OW79144   8.591   5.259   1.467
24766SOL    HW179145   8.664   5.321   1.473
24766SOL    HW279146   8.614   5.190   1.529
24767SOL     OW79147   7.752   4.658   0.243
24767SOL    HW179148   7.846   4.655   0.226
24767SOL    HW279149   7.721   4.569   0.224
24768SOL     OW79150   8.930   4.492   0.741
24768SOL    HW179151   8.945   4.463   0.831
24768SOL    HW279152   9.011   4.539   0.717
24769SOL     OW79153   7.883   5.012   1.714
24769SOL    HW179154   7.954   5.074   1.701
24769SOL    HW279155   7.888   4.989   1.807
24770SOL     OW79156   8.572   5.485   0.211
24770SOL    HW179157   8.601   5.453   0.297
24770SOL    HW279158   8.593   5.414   0.151
24771SOL     OW79159   7.591   4.010   1.563
24771SOL    HW179160   7.646   4.039   1.636
24771SOL    HW279161   7.647   3.950   1.513
24772SOL     OW79162   9.080   5.017   0.013
24772SOL    HW179163   9.049   5.107   0.023
24772SOL    HW279164   9.000   4.964   0.015
24773SOL     OW79165   7.951   5.414   0.397
24773SOL    HW179166   7.976   5.495   0.442
24773SOL    HW279167   8.021   5.400   0.333
24774SOL     OW79168   7.659   5.500   1.242
24774SOL    HW179169   7.736   5.455   1.276
24774SOL    HW279170   7.650   5.470   1.152
24775SOL     OW79171   8.420   5.435   0.902
24775SOL    HW179172   8.508   5.408   0.929
24775SOL    HW279173   8.397   5.372   0.833
24776SOL     OW79174   7.842   4.418   0.483
24776SOL    HW179175   7.861   4.324   0.492
24776SOL    HW279176   7.748   4.425   0.498
24777SOL     OW79177   8.104   3.861   0.092
24777SOL    HW179178   8.193   3.833   0.112
24777SOL    HW279179   8.092   3.842  -0.001
24778SOL     OW79180   8.239   3.976   1.743
24778SOL    HW179181   8.325   3.941   1.723
24778SOL    HW279182   8.239   3.988   1.838
24779SOL     OW79183   8.295   5.149   1.219
24779SOL    HW179184   8.285   5.154   1.124
24779SOL    HW279185   8.385   5.118   1.232
24780SOL     OW79186   8.257   5.151   0.951
24780SOL    HW179187   8.339   5.131   0.907
24780SOL    HW279188   8.190   5.146   0.883
24781SOL     OW79189   8.290   4.182   0.870
24781SOL    HW179190   8.312   4.192   0.778
24781SOL    HW279191   8.339   4.105   0.898
24782SOL     OW79192   8.030   3.826   0.489
24782SOL    HW179193   7.958   3.802   0.547
24782SOL    HW279194   7.987   3.867   0.413
24783SOL     OW79195   8.836   4.878   0.030
24783SOL    HW179196   8.868   4.822   0.101
24783SOL    HW279197   8.763   4.927   0.069
24784SOL     OW79198   8.642   4.429   1.466
24784SOL    HW179199   8.675   4.340   1.475
24784SOL    HW279200   8.716   4.485   1.492
24785SOL     OW79201   8.661   5.280   0.764
24785SOL    HW179202   8.693   5.357   0.718
24785SOL    HW279203   8.735   5.250   0.816
24786SOL     OW79204   7.994   4.863   0.754
24786SOL    HW179205   7.993   4.832   0.845
24786SOL    HW279206   8.069   4.818   0.714
24787SOL     OW79207   8.788   5.498   0.640
24787SOL    HW179208   8.785   5.579   0.588
24787SOL    HW279209   8.864   5.509   0.696
24788SOL     OW79210   8.511   4.262   0.006
24788SOL    HW179211   8.445   4.205   0.044
24788SOL    HW279212   8.570   4.283   0.078
24789SOL     OW79213   7.513   4.420   1.375
24789SOL    HW179214   7.592   4.397   1.325
24789SOL    HW279215   7.545   4.434   1.464
24790SOL     OW79216   8.044   3.915   1.111
24790SOL    HW179217   8.085   3.834   1.081
24790SOL    HW279218   8.007   3.893   1.197
24791SOL     OW79219   8.346   4.182   0.604
24791SOL    HW179220   8.302   4.203   0.522
24791SOL    HW279221   8.404   4.108   0.582
24792SOL     OW79222   8.429   3.725   0.754
24792SOL    HW179223   8.350   3.693   0.711
24792SOL    HW279224   8.446   3.662   0.824
24793SOL     OW79225   8.814   4.900   0.848
24793SOL    HW179226   8.757   4.843   0.900
24793SOL    HW279227   8.903   4.880   0.877
24794SOL     OW79228   8.937   4.400   1.004
24794SOL    HW179229   8.908   4.309   1.004
24794SOL    HW279230   8.999   4.405   1.077
24795SOL     OW79231   9.307   4.533   0.314
24795SOL    HW179232   9.356   4.499   0.389
24795SOL    HW279233   9.245   4.463   0.292
24796SOL     OW79234   7.945   5.187   0.175
24796SOL    HW179235   7.869   5.136   0.203
24796SOL    HW279236   7.985   5.134   0.106
24797SOL     OW79237   9.118   5.052   0.627
24797SOL    HW179238   9.207   5.062   0.663
24797SOL    HW279239   9.072   5.130   0.657
24798SOL     OW79240   8.856   4.290   0.078
24798SOL    HW179241   8.788   4.296   0.145
24798SOL    HW279242   8.883   4.198   0.079
24799SOL     OW79243   7.919   3.950   0.267
24799SOL    HW179244   7.987   3.912   0.211
24799SOL    HW279245   7.905   4.037   0.231
24800SOL     OW79246   8.521   4.987   1.296
24800SOL    HW179247   8.476   4.987   1.380
24800SOL    HW279248   8.613   4.976   1.318
24801SOL     OW79249   8.428   4.885   1.045
24801SOL    HW179250   8.477   4.903   1.125
24801SOL    HW279251   8.462   4.946   0.981
24802SOL     OW79252   9.014   4.871   1.041
24802SOL    HW179253   9.057   4.914   1.115
24802SOL    HW279254   8.928   4.846   1.075
24803SOL     OW79255   8.338   3.743   1.380
24803SOL    HW179256   8.355   3.736   1.286
24803SOL    HW279257   8.409   3.799   1.413
24804SOL     OW79258   8.418   4.801   1.739
24804SOL    HW179259   8.325   4.803   1.764
24804SOL    HW279260   8.425   4.729   1.677
24805SOL     OW79261   8.192   4.773   0.387
24805SOL    HW179262   8.194   4.752   0.480
24805SOL    HW279263   8.266   4.724   0.350
24806SOL     OW79264   7.875   4.580   1.256
24806SOL    HW179265   7.953   4.577   1.311
24806SOL    HW279266   7.841   4.490   1.256
24807SOL     OW79267   8.672   4.119   1.246
24807SOL    HW179268   8.709   4.139   1.332
24807SOL    HW279269   8.747   4.124   1.187
24808SOL     OW79270   7.546   5.272   1.399
24808SOL    HW179271   7.575   5.350   1.352
24808SOL    HW279272   7.627   5.232   1.431
24809SOL     OW79273   7.763   4.861   0.450
24809SOL    HW179274   7.752   4.931   0.386
24809SOL    HW279275   7.769   4.781   0.398
24810SOL     OW79276   8.020   4.252   0.841
24810SOL    HW179277   8.019   4.336   0.796
24810SOL    HW279278   8.113   4.234   0.857
24811SOL     OW79279   8.666   5.096   0.362
24811SOL    HW179280   8.709   5.181   0.372
24811SOL    HW279281   8.588   5.103   0.417
24812SOL     OW79282   8.738   5.191   1.162
24812SOL    HW179283   8.815   5.206   1.217
24812SOL    HW279284   8.679   5.137   1.216
24813SOL     OW79285   8.962   4.376   0.451
24813SOL    HW179286   9.016   4.324   0.511
24813SOL    HW279287   9.010   4.373   0.368
24814SOL     OW79288   7.859   5.330   1.314
24814SOL    HW179289   7.851   5.274   1.237
24814SOL    HW279290   7.953   5.339   1.327
24815SOL     OW79291   7.918   4.460   1.624
24815SOL    HW179292   7.972   4.503   1.558
24815SOL    HW279293   7.957   4.374   1.635
24816SOL     OW79294   8.470   3.849   1.677
24816SOL    HW179295   8.502   3.889   1.596
24816SOL    HW279296   8.507   3.761   1.676
24817SOL     OW79297   7.911   4.716   1.016
24817SOL    HW179298   8.001   4.750   1.016
24817SOL    HW279299   7.901   4.676   1.103
24818SOL     OW79300   8.732   4.583   0.960
24818SOL    HW179301   8.657   4.524   0.967
24818SOL    HW279302   8.807   4.527   0.980
24819SOL     OW79303   8.645   4.270   0.250
24819SOL    HW179304   8.637   4.179   0.280
24819SOL    HW279305   8.594   4.321   0.314
24820SOL     OW79306   7.718   3.931   1.191
24820SOL    HW179307   7.792   3.936   1.251
24820SOL    HW279308   7.675   3.848   1.214
24821SOL     OW79309   7.479   5.040   1.254
24821SOL    HW179310   7.497   4.969   1.315
24821SOL    HW279311   7.499   5.120   1.303
24822SOL     OW79312   8.212   4.352   1.076
24822SOL    HW179313   8.252   4.303   1.004
24822SOL    HW279314   8.286   4.390   1.123
24823SOL     OW79315   7.787   3.782   0.621
24823SOL    HW179316   7.754   3.871   0.632
24823SOL    HW279317   7.782   3.744   0.708
24824SOL     OW79318   9.085   4.077   0.377
24824SOL    HW179319   9.149   4.008   0.394
24824SOL    HW279320   9.059   4.109   0.463
24825SOL     OW79321   8.510   4.422   0.983
24825SOL    HW179322   8.497   4.431   1.077
24825SOL    HW279323   8.538   4.331   0.971
24826SOL     OW79324   8.337   5.183   1.660
24826SOL    HW179325   8.349   5.272   1.629
24826SOL    HW279326   8.426   5.149   1.671
24827SOL     OW79327   9.364   5.166   1.529
24827SOL    HW179328   9.350   5.248   1.481
24827SOL    HW279329   9.420   5.191   1.603
24828SOL     OW79330   7.810   4.629   1.824
24828SOL    HW179331   7.876   4.658   1.887
24828SOL    HW279332   7.857   4.573   1.763
24829SOL     OW79333   8.914   4.025   0.149
24829SOL    HW179334   8.865   3.944   0.162
24829SOL    HW279335   8.967   4.034   0.228
24830SOL     OW79336   8.773   4.543   9.948
24830SOL    HW179337   8.790   4.453   9.975
24830SOL    HW279338   8.848   4.592   9.981
24831SOL     OW79339   8.482   5.074   0.817
24831SOL    HW179340   8.504   4.996   0.765
24831SOL    HW279341   8.551   5.136   0.797
24832SOL     OW79342   7.713   4.524   0.978
24832SOL    HW179343   7.790   4.580   0.983
24832SOL    HW279344   7.748   4.435   0.978
24833SOL     OW79345   7.790   4.266   0.991
24833SOL    HW179346   7.751   4.180   0.976
24833SOL    HW279347   7.877   4.260   0.951
24834SOL     OW79348   8.541   3.925   1.418
24834SOL    HW179349   8.621   3.943   1.467
24834SOL    HW279350   8.549   3.977   1.339
24835SOL     OW79351   7.451   5.021   0.184
24835SOL    HW179352   7.362   5.031   0.152
24835SOL    HW279353   7.459   4.927   0.203
24836SOL     OW79354   7.538   5.478   0.959
24836SOL    HW179355   7.513   5.406   0.900
24836SOL    HW279356   7.627   5.500   0.932
24837SOL     OW79357   7.950   5.323   0.902
24837SOL    HW179358   8.022   5.382   0.919
24837SOL    HW279359   7.986   5.256   0.844
24838SOL     OW79360   8.456   4.457   1.252
24838SOL    HW179361   8.535   4.453   1.306
24838SOL    HW279362   8.387   4.419   1.306
24839SOL     OW79363   7.507   4.292   1.061
24839SOL    HW179364   7.530   4.206   1.025
24839SOL    HW279365   7.587   4.343   1.055
24840SOL     OW79366   7.597   4.309   1.826
24840SOL    HW179367   7.650   4.234   1.799
24840SOL    HW279368   7.598   4.368   1.751
24841SOL     OW79369   8.863   4.579   1.551
24841SOL    HW179370   8.922   4.649   1.580
24841SOL    HW279371   8.883   4.505   1.609
24842SOL     OW79372   8.261   4.257   0.353
24842SOL    HW179373   8.292   4.195   0.287
24842SOL    HW279374   8.188   4.303   0.310
24843SOL     OW79375   9.110   4.378   1.235
24843SOL    HW179376   9.051   4.370   1.309
24843SOL    HW279377   9.195   4.351   1.269
24844SOL     OW79378   8.026   4.190   1.199
24844SOL    HW179379   8.045   4.105   1.160
24844SOL    HW279380   8.089   4.250   1.159
24845SOL     OW79381   8.363   5.406   1.487
24845SOL    HW179382   8.439   5.354   1.460
24845SOL    HW279383   8.400   5.482   1.532
24846SOL     OW79384   7.852   4.221   0.221
24846SOL    HW179385   7.929   4.277   0.219
24846SOL    HW279386   7.840   4.199   0.313
24847SOL     OW79387   7.505   4.826   1.458
24847SOL    HW179388   7.547   4.801   1.541
24847SOL    HW279389   7.558   4.783   1.391
24848SOL     OW79390   8.753   4.797   1.120
24848SOL    HW179391   8.793   4.760   1.199
24848SOL    HW279392   8.733   4.721   1.066
24849SOL     OW79393   9.152   5.442   1.109
24849SOL    HW179394   9.210   5.488   1.049
24849SOL    HW279395   9.160   5.350   1.085
24850SOL     OW79396   8.660   5.439   1.072
24850SOL    HW179397   8.745   5.483   1.070
24850SOL    HW279398   8.679   5.353   1.109
24851SOL     OW79399   7.576   5.001   0.996
24851SOL    HW179400   7.549   5.011   1.087
24851SOL    HW279401   7.496   4.973   0.951
24852SOL     OW79402   8.363   3.801   0.159
24852SOL    HW179403   8.451   3.769   0.141
24852SOL    HW279404   8.353   3.793   0.253
24853SOL     OW79405   9.277   3.895   0.469
24853SOL    HW179406   9.276   3.801   0.452
24853SOL    HW279407   9.270   3.903   0.564
24854SOL     OW79408   8.764   5.359   0.396
24854SOL    HW179409   8.847   5.380   0.353
24854SOL    HW279410   8.774   5.391   0.485
24855SOL     OW79411   7.544   5.448   1.775
24855SOL    HW179412   7.493   5.366   1.777
24855SOL    HW279413   7.579   5.455   1.864
24856SOL     OW79414   8.712   4.670   0.644
24856SOL    HW179415   8.788   4.652   0.700
24856SOL    HW279416   8.744   4.732   0.579
24857SOL     OW79417   8.269   5.007   1.459
24857SOL    HW179418   8.301   5.063   1.530
24857SOL    HW279419   8.265   5.064   1.383
24858SOL     OW79420   8.143   5.373   0.206
24858SOL    HW179421   8.169   5.408   0.121
24858SOL    HW279422   8.083   5.302   0.185
24859SOL     OW79423   7.714   4.040   0.692
24859SOL    HW179424   7.629   4.071   0.722
24859SOL    HW279425   7.765   4.027   0.772
24860SOL     OW79426   8.651   5.273   0.049
24860SOL    HW179427   8.631   5.179   0.059
24860SOL    HW279428   8.643   5.289   9.955
24861SOL     OW79429   8.288   4.740   1.388
24861SOL    HW179430   8.334   4.748   1.305
24861SOL    HW279431   8.276   4.830   1.418
24862SOL     OW79432   8.390   4.625   0.279
24862SOL    HW179433   8.446   4.640   0.203
24862SOL    HW279434   8.432   4.553   0.326
24863SOL     OW79435   8.931   5.258   0.030
24863SOL    HW179436   8.841   5.263   0.062
24863SOL    HW279437   8.923   5.275   9.936
24864SOL     OW79438   7.759   5.148   1.507
24864SOL    HW179439   7.828   5.189   1.455
24864SOL    HW279440   7.804   5.080   1.557
24865SOL     OW79441   8.488   4.825   0.696
24865SOL    HW179442   8.463   4.765   0.767
24865SOL    HW279443   8.570   4.788   0.662
24866SOL     OW79444   8.437   3.951   0.938
24866SOL    HW179445   8.430   3.893   0.861
24866SOL    HW279446   8.445   3.891   1.012
24867SOL     OW79447   7.990   5.142   0.483
24867SOL    HW179448   8.057   5.106   0.425
24867SOL    HW279449   7.969   5.228   0.446
24868SOL     OW79450   9.274   4.064   1.323
24868SOL    HW179451   9.305   4.154   1.317
24868SOL    HW279452   9.219   4.062   1.401
24869SOL     OW79453   7.704   5.076   0.285
24869SOL    HW179454   7.619   5.061   0.244
24869SOL    HW279455   7.694   5.158   0.333
24870SOL     OW79456   7.575   4.731   1.714
24870SOL    HW179457   7.506   4.732   1.781
24870SOL    HW279458   7.655   4.717   1.764
24871SOL     OW79459   7.565   4.203   9.951
24871SOL    HW179460   7.496   4.137   9.951
24871SOL    HW279461   7.645   4.154   9.935
24872SOL     OW79462   8.911   4.658   1.296
24872SOL    HW179463   8.954   4.740   1.320
24872SOL    HW279464   8.893   4.615   1.380
24873SOL     OW79465   7.691   3.790   0.242
24873SOL    HW179466   7.763   3.848   0.265
24873SOL    HW279467   7.695   3.719   0.306
24874SOL     OW79468   8.597   5.000   0.113
24874SOL    HW179469   8.504   5.018   0.103
24874SOL    HW279470   8.617   5.024   0.204
24875SOL     OW79471   8.090   4.549   1.424
24875SOL    HW179472   8.153   4.621   1.416
24875SOL    HW279473   8.143   4.470   1.409
24876SOL     OW79474   8.908   5.560   1.059
24876SOL    HW179475   8.928   5.559   0.965
24876SOL    HW279476   8.982   5.515   1.100
24877SOL     OW79477   8.186   4.254   1.660
24877SOL    HW179478   8.242   4.310   1.714
24877SOL    HW279479   8.205   4.165   1.691
24878SOL     OW79480   8.833   4.948   1.668
24878SOL    HW179481   8.859   4.981   1.754
24878SOL    HW279482   8.898   4.881   1.647
24879SOL     OW79483   9.202   4.630   1.169
24879SOL    HW179484   9.178   4.539   1.187
24879SOL    HW279485   9.118   4.677   1.171
24880SOL     OW79486   8.006   4.494   0.697
24880SOL    HW179487   8.079   4.545   0.662
24880SOL    HW279488   7.951   4.476   0.620
24881SOL     OW79489   9.171   4.078   1.574
24881SOL    HW179490   9.142   4.165   1.602
24881SOL    HW279491   9.210   4.039   1.652
24882SOL     OW79492   8.325   5.117   0.067
24882SOL    HW179493   8.244   5.088   0.025
24882SOL    HW279494   8.303   5.127   0.159
24883SOL     OW79495   8.147   5.509   0.922
24883SOL    HW179496   8.177   5.589   0.879
24883SOL    HW279497   8.226   5.457   0.932
24884SOL     OW79498   8.386   4.654   0.886
24884SOL    HW179499   8.417   4.570   0.920
24884SOL    HW279500   8.398   4.715   0.959
24885SOL     OW79501   8.555   4.689   0.063
24885SOL    HW179502   8.587   4.780   0.067
24885SOL    HW279503   8.631   4.638   0.035
24886SOL     OW79504   9.318   5.212   0.771
24886SOL    HW179505   9.323   5.307   0.760
24886SOL    HW279506   9.266   5.200   0.850
24887SOL     OW79507   7.646   5.139   1.799
24887SOL    HW179508   7.714   5.089   1.754
24887SOL    HW279509   7.644   5.101   1.887
24888SOL     OW79510   8.044   5.222   1.645
24888SOL    HW179511   8.116   5.181   1.596
24888SOL    HW279512   8.081   5.305   1.676
24889SOL     OW79513   7.860   4.146   0.485
24889SOL    HW179514   7.922   4.075   0.469
24889SOL    HW279515   7.806   4.114   0.557
24890SOL     OW79516   9.157   5.173   1.013
24890SOL    HW179517   9.069   5.164   0.976
24890SOL    HW279518   9.155   5.122   1.094
24891SOL     OW79519   7.749   4.330   1.263
24891SOL    HW179520   7.787   4.274   1.330
24891SOL    HW279521   7.782   4.295   1.181
24892SOL     OW79522   8.281   5.314   0.695
24892SOL    HW179523   8.283   5.345   0.604
24892SOL    HW279524   8.205   5.255   0.699
24893SOL     OW79525   8.462   3.755   1.131
24893SOL    HW179526   8.430   3.683   1.078
24893SOL    HW279527   8.554   3.733   1.148
24894SOL     OW79528   8.218   5.048   0.345
24894SOL    HW179529   8.212   4.953   0.352
24894SOL    HW279530   8.295   5.071   0.397
24895SOL     OW79531   8.132   5.332   1.344
24895SOL    HW179532   8.189   5.380   1.404
24895SOL    HW279533   8.192   5.278   1.292
24896SOL     OW79534   8.749   4.145   0.708
24896SOL    HW179535   8.680   4.155   0.773
24896SOL    HW279536   8.821   4.103   0.755
24897SOL     OW79537   7.495   4.757   0.271
24897SOL    HW179538   7.590   4.743   0.265
24897SOL    HW279539   7.461   4.676   0.309
24898SOL     OW79540   8.308   5.384   0.430
24898SOL    HW179541   8.262   5.381   0.346
24898SOL    HW279542   8.314   5.477   0.451
24899SOL     OW79543   7.679   4.403   2.074
24899SOL    HW179544   7.625   4.340   2.122
24899SOL    HW279545   7.652   4.394   1.983
24900SOL     OW79546   7.630   4.029   2.855
24900SOL    HW179547   7.660   3.990   2.937
24900SOL    HW279548   7.547   3.984   2.836
24901SOL     OW79549   7.513   4.111   2.444
24901SOL    HW179550   7.444   4.045   2.432
24901SOL    HW279551   7.576   4.091   2.374
24902SOL     OW79552   8.006   5.040   3.023
24902SOL    HW179553   8.013   5.122   2.974
24902SOL    HW279554   8.047   5.060   3.107
24903SOL     OW79555   9.051   5.215   2.568
24903SOL    HW179556   8.989   5.206   2.641
24903SOL    HW279557   8.996   5.232   2.492
24904SOL     OW79558   8.576   4.456   2.549
24904SOL    HW179559   8.633   4.531   2.534
24904SOL    HW279560   8.549   4.464   2.640
24905SOL     OW79561   9.204   4.318   2.026
24905SOL    HW179562   9.167   4.326   1.938
24905SOL    HW279563   9.158   4.244   2.064
24906SOL     OW79564   8.166   4.852   2.901
24906SOL    HW179565   8.103   4.892   2.961
24906SOL    HW279566   8.225   4.924   2.877
24907SOL     OW79567   8.316   4.497   3.697
24907SOL    HW179568   8.362   4.568   3.743
24907SOL    HW279569   8.324   4.520   3.604
24908SOL     OW79570   8.152   4.768   2.531
24908SOL    HW179571   8.199   4.708   2.589
24908SOL    HW279572   8.199   4.851   2.539
24909SOL     OW79573   7.754   5.115   2.937
24909SOL    HW179574   7.817   5.045   2.952
24909SOL    HW279575   7.807   5.191   2.915
24910SOL     OW79576   8.927   5.263   3.222
24910SOL    HW179577   8.950   5.354   3.203
24910SOL    HW279578   8.923   5.258   3.317
24911SOL     OW79579   9.091   4.165   2.584
24911SOL    HW179580   9.055   4.216   2.512
24911SOL    HW279581   9.186   4.168   2.571
24912SOL     OW79582   7.702   5.534   2.333
24912SOL    HW179583   7.784   5.577   2.357
24912SOL    HW279584   7.727   5.467   2.269
24913SOL     OW79585   8.538   5.063   3.620
24913SOL    HW179586   8.537   5.061   3.716
24913SOL    HW279587   8.505   4.977   3.594
24914SOL     OW79588   7.635   5.295   2.478
24914SOL    HW179589   7.646   5.379   2.435
24914SOL    HW279590   7.713   5.245   2.454
24915SOL     OW79591   7.678   4.816   2.739
24915SOL    HW179592   7.700   4.739   2.791
24915SOL    HW279593   7.761   4.842   2.698
24916SOL     OW79594   8.053   5.460   3.375
24916SOL    HW179595   8.112   5.459   3.450
24916SOL    HW279596   8.086   5.532   3.320
24917SOL     OW79597   7.993   4.718   2.024
24917SOL    HW179598   8.051   4.749   1.954
24917SOL    HW279599   8.038   4.741   2.105
24918SOL     OW79600   8.975   3.907   3.293
24918SOL    HW179601   9.040   3.976   3.275
24918SOL    HW279602   8.951   3.920   3.385
24919SOL     OW79603   7.523   4.385   2.407
24919SOL    HW179604   7.529   4.291   2.425
24919SOL    HW279605   7.569   4.426   2.481
24920SOL     OW79606   9.256   5.471   2.225
24920SOL    HW179607   9.291   5.426   2.148
24920SOL    HW279608   9.305   5.553   2.230
24921SOL     OW79609   7.439   5.331   2.082
24921SOL    HW179610   7.447   5.236   2.086
24921SOL    HW279611   7.525   5.362   2.057
24922SOL     OW79612   9.144   4.609   2.515
24922SOL    HW179613   9.229   4.593   2.557
24922SOL    HW279614   9.166   4.633   2.426
24923SOL     OW79615   9.108   4.833   2.310
24923SOL    HW179616   9.189   4.826   2.261
24923SOL    HW279617   9.134   4.871   2.394
24924SOL     OW79618   7.629   4.488   3.464
24924SOL    HW179619   7.723   4.480   3.481
24924SOL    HW279620   7.621   4.565   3.408
24925SOL     OW79621   8.071   5.071   2.611
24925SOL    HW179622   8.004   5.003   2.614
24925SOL    HW279623   8.096   5.076   2.519
24926SOL     OW79624   8.713   4.954   3.268
24926SOL    HW179625   8.745   4.880   3.215
24926SOL    HW279626   8.759   4.945   3.351
24927SOL     OW79627   8.283   3.754   2.354
24927SOL    HW179628   8.325   3.834   2.324
24927SOL    HW279629   8.190   3.775   2.355
24928SOL     OW79630   7.572   4.665   3.078
24928SOL    HW179631   7.642   4.630   3.133
24928SOL    HW279632   7.597   4.639   2.989
24929SOL     OW79633   8.942   4.772   2.089
24929SOL    HW179634   8.981   4.707   2.030
24929SOL    HW279635   9.006   4.784   2.159
24930SOL     OW79636   8.608   5.483   3.336
24930SOL    HW179637   8.689   5.506   3.292
24930SOL    HW279638   8.626   5.398   3.376
24931SOL     OW79639   7.814   4.096   3.624
24931SOL    HW179640   7.864   4.087   3.543
24931SOL    HW279641   7.878   4.083   3.693
24932SOL     OW79642   8.878   5.158   2.790
24932SOL    HW179643   8.827   5.167   2.871
24932SOL    HW279644   8.878   5.064   2.773
24933SOL     OW79645   9.116   5.484   2.462
24933SOL    HW179646   9.167   5.469   2.382
24933SOL    HW279647   9.122   5.401   2.509
24934SOL     OW79648   8.088   4.408   2.119
24934SOL    HW179649   8.142   4.486   2.107
24934SOL    HW279650   8.025   4.433   2.187
24935SOL     OW79651   8.724   4.118   2.820
24935SOL    HW179652   8.639   4.075   2.813
24935SOL    HW279653   8.781   4.053   2.861
24936SOL     OW79654   8.999   5.392   2.137
24936SOL    HW179655   9.084   5.428   2.164
24936SOL    HW279656   9.001   5.397   2.042
24937SOL     OW79657   8.150   4.342   3.303
24937SOL    HW179658   8.131   4.264   3.356
24937SOL    HW279659   8.184   4.307   3.221
24938SOL     OW79660   8.829   4.179   3.520
24938SOL    HW179661   8.825   4.219   3.607
24938SOL    HW279662   8.880   4.099   3.533
24939SOL     OW79663   8.375   4.588   3.443
24939SOL    HW179664   8.419   4.514   3.402
24939SOL    HW279665   8.332   4.634   3.370
24940SOL     OW79666   8.401   4.453   2.330
24940SOL    HW179667   8.460   4.454   2.405
24940SOL    HW279668   8.401   4.362   2.301
24941SOL     OW79669   7.542   4.573   2.628
24941SOL    HW179670   7.601   4.549   2.700
24941SOL    HW279671   7.579   4.654   2.592
24942SOL     OW79672   7.390   5.693   3.581
24942SOL    HW179673   7.428   5.628   3.640
24942SOL    HW279674   7.462   5.719   3.524
24943SOL     OW79675   8.307   4.004   2.016
24943SOL    HW179676   8.367   4.063   1.972
24943SOL    HW279677   8.356   3.973   2.093
24944SOL     OW79678   9.160   4.310   3.704
24944SOL    HW179679   9.139   4.384   3.647
24944SOL    HW279680   9.173   4.237   3.645
24945SOL     OW79681   8.839   4.872   2.362
24945SOL    HW179682   8.933   4.857   2.355
24945SOL    HW279683   8.811   4.894   2.274
24946SOL     OW79684   8.385   5.220   2.308
24946SOL    HW179685   8.379   5.285   2.238
24946SOL    HW279686   8.477   5.193   2.309
24947SOL     OW79687   9.259   4.793   2.778
24947SOL    HW179688   9.221   4.837   2.702
24947SOL    HW279689   9.187   4.790   2.842
24948SOL     OW79690   8.660   5.243   3.445
24948SOL    HW179691   8.628   5.174   3.503
24948SOL    HW279692   8.754   5.249   3.464
24949SOL     OW79693   7.730   4.682   2.128
24949SOL    HW179694   7.814   4.704   2.088
24949SOL    HW279695   7.710   4.594   2.097
24950SOL     OW79696   8.914   4.483   2.579
24950SOL    HW179697   8.919   4.432   2.660
24950SOL    HW279698   8.999   4.526   2.572
24951SOL     OW79699   8.553   5.522   2.025
24951SOL    HW179700   8.471   5.491   2.063
24951SOL    HW279701   8.580   5.453   1.965
24952SOL     OW79702   7.662   3.987   3.398
24952SOL    HW179703   7.721   4.024   3.332
24952SOL    HW279704   7.720   3.953   3.466
24953SOL     OW79705   9.138   5.127   1.927
24953SOL    HW179706   9.109   5.214   1.902
24953SOL    HW279707   9.059   5.073   1.924
24954SOL     OW79708   8.866   3.828   2.327
24954SOL    HW179709   8.862   3.784   2.243
24954SOL    HW279710   8.959   3.847   2.340
24955SOL     OW79711   7.680   5.504   3.050
24955SOL    HW179712   7.773   5.481   3.044
24955SOL    HW279713   7.660   5.545   2.966
24956SOL     OW79714   8.429   5.440   2.767
24956SOL    HW179715   8.514   5.422   2.806
24956SOL    HW279716   8.414   5.366   2.708
24957SOL     OW79717   7.864   4.415   2.295
24957SOL    HW179718   7.845   4.324   2.317
24957SOL    HW279719   7.799   4.438   2.229
24958SOL     OW79720   8.954   3.931   3.586
24958SOL    HW179721   8.943   3.958   3.678
24958SOL    HW279722   8.948   3.835   3.589
24959SOL     OW79723   8.084   3.807   2.034
24959SOL    HW179724   8.172   3.845   2.029
24959SOL    HW279725   8.090   3.725   1.984
24960SOL     OW79726   8.124   4.028   3.714
24960SOL    HW179727   8.212   3.995   3.693
24960SOL    HW279728   8.134   4.070   3.800
24961SOL     OW79729   8.314   5.258   3.049
24961SOL    HW179730   8.285   5.221   2.966
24961SOL    HW279731   8.388   5.204   3.075
24962SOL     OW79732   8.765   4.304   3.282
24962SOL    HW179733   8.804   4.273   3.364
24962SOL    HW279734   8.801   4.392   3.270
24963SOL     OW79735   8.252   5.112   2.819
24963SOL    HW179736   8.339   5.102   2.779
24963SOL    HW279737   8.191   5.097   2.746
24964SOL     OW79738   8.319   4.305   2.725
24964SOL    HW179739   8.306   4.262   2.640
24964SOL    HW279740   8.307   4.235   2.789
24965SOL     OW79741   8.009   3.807   2.353
24965SOL    HW179742   7.936   3.796   2.414
24965SOL    HW279743   7.985   3.883   2.300
24966SOL     OW79744   8.894   4.996   1.932
24966SOL    HW179745   8.907   4.917   1.985
24966SOL    HW279746   8.813   5.034   1.967
24967SOL     OW79747   7.743   3.770   2.108
24967SOL    HW179748   7.755   3.788   2.015
24967SOL    HW279749   7.816   3.712   2.130
24968SOL     OW79750   8.411   3.987   2.278
24968SOL    HW179751   8.386   4.079   2.270
24968SOL    HW279752   8.505   3.989   2.295
24969SOL     OW79753   8.501   4.367   3.333
24969SOL    HW179754   8.471   4.289   3.380
24969SOL    HW279755   8.593   4.349   3.313
24970SOL     OW79756   8.665   5.277   2.639
24970SOL    HW179757   8.689   5.355   2.589
24970SOL    HW279758   8.745   5.254   2.687
24971SOL     OW79759   7.892   4.861   2.574
24971SOL    HW179760   7.970   4.808   2.564
24971SOL    HW279761   7.846   4.853   2.491
24972SOL     OW79762   8.762   5.511   2.520
24972SOL    HW179763   8.790   5.577   2.456
24972SOL    HW279764   8.815   5.530   2.598
24973SOL     OW79765   8.469   4.186   1.894
24973SOL    HW179766   8.440   4.268   1.853
24973SOL    HW279767   8.516   4.214   1.972
24974SOL     OW79768   7.505   4.330   3.269
24974SOL    HW179769   7.590   4.298   3.237
24974SOL    HW279770   7.527   4.383   3.346
24975SOL     OW79771   8.271   4.164   2.493
24975SOL    HW179772   8.254   4.189   2.403
24975SOL    HW279773   8.315   4.079   2.487
24976SOL     OW79774   8.341   3.807   2.626
24976SOL    HW179775   8.338   3.779   2.535
24976SOL    HW279776   8.362   3.727   2.675
24977SOL     OW79777   8.913   4.892   2.718
24977SOL    HW179778   8.854   4.821   2.693
24977SOL    HW279779   8.981   4.892   2.651
24978SOL     OW79780   8.901   4.350   2.830
24978SOL    HW179781   8.850   4.269   2.828
24978SOL    HW279782   8.970   4.333   2.894
24979SOL     OW79783   9.230   4.505   2.234
24979SOL    HW179784   9.299   4.470   2.290
24979SOL    HW279785   9.226   4.446   2.159
24980SOL     OW79786   7.881   5.002   1.986
24980SOL    HW179787   7.829   5.015   2.066
24980SOL    HW279788   7.972   4.996   2.018
24981SOL     OW79789   9.166   4.954   2.558
24981SOL    HW179790   9.261   4.956   2.541
24981SOL    HW279791   9.140   5.046   2.557
24982SOL     OW79792   7.946   4.007   2.165
24982SOL    HW179793   7.987   3.936   2.115
24982SOL    HW279794   7.934   4.078   2.101
24983SOL     OW79795   9.150   4.990   3.412
24983SOL    HW179796   9.222   5.053   3.405
24983SOL    HW279797   9.092   5.027   3.478
24984SOL     OW79798   8.506   5.084   3.155
24984SOL    HW179799   8.427   5.059   3.203
24984SOL    HW279800   8.578   5.050   3.208
24985SOL     OW79801   8.528   4.909   2.943
24985SOL    HW179802   8.516   4.971   3.015
24985SOL    HW279803   8.525   4.962   2.864
24986SOL     OW79804   9.050   4.815   2.956
24986SOL    HW179805   9.043   4.883   3.024
24986SOL    HW279806   8.981   4.838   2.893
24987SOL     OW79807   8.423   4.801   3.611
24987SOL    HW179808   8.354   4.862   3.586
24987SOL    HW279809   8.417   4.731   3.545
24988SOL     OW79810   8.139   4.804   2.252
24988SOL    HW179811   8.139   4.777   2.344
24988SOL    HW279812   8.207   4.751   2.212
24989SOL     OW79813   7.777   4.558   3.216
24989SOL    HW179814   7.867   4.582   3.236
24989SOL    HW279815   7.780   4.463   3.202
24990SOL     OW79816   8.689   4.071   3.150
24990SOL    HW179817   8.719   4.149   3.196
24990SOL    HW279818   8.662   4.103   3.064
24991SOL     OW79819   7.571   5.299   3.212
24991SOL    HW179820   7.591   5.376   3.159
24991SOL    HW279821   7.655   5.253   3.221
24992SOL     OW79822   7.728   4.849   2.351
24992SOL    HW179823   7.730   4.931   2.301
24992SOL    HW279824   7.735   4.780   2.284
24993SOL     OW79825   7.969   4.243   2.769
24993SOL    HW179826   7.963   4.285   2.683
24993SOL    HW279827   8.042   4.288   2.813
24994SOL     OW79828   8.660   5.124   2.306
24994SOL    HW179829   8.731   5.187   2.316
24994SOL    HW279830   8.678   5.057   2.371
24995SOL     OW79831   8.740   5.204   3.029
24995SOL    HW179832   8.803   5.217   3.099
24995SOL    HW279833   8.665   5.162   3.071
24996SOL     OW79834   9.032   4.335   2.367
24996SOL    HW179835   8.972   4.383   2.424
24996SOL    HW279836   9.089   4.402   2.329
24997SOL     OW79837   7.816   5.180   3.209
24997SOL    HW179838   7.811   5.159   3.116
24997SOL    HW279839   7.907   5.206   3.223
24998SOL     OW79840   7.897   4.491   3.511
24998SOL    HW179841   7.948   4.530   3.440
24998SOL    HW279842   7.948   4.415   3.539
24999SOL     OW79843   9.097   4.529   3.548
24999SOL    HW179844   9.006   4.557   3.532
24999SOL    HW279845   9.147   4.572   3.479
25000SOL     OW79846   8.376   3.928   3.648
25000SOL    HW179847   8.436   3.981   3.596
25000SOL    HW279848   8.431   3.859   3.685
25001SOL     OW79849   7.881   3.830   3.495
25001SOL    HW179850   7.889   3.747   3.448
25001SOL    HW279851   7.943   3.888   3.451
25002SOL     OW79852   7.975   4.654   2.840
25002SOL    HW179853   8.034   4.728   2.856
25002SOL    HW279854   8.029   4.577   2.856
25003SOL     OW79855   8.762   4.587   2.853
25003SOL    HW179856   8.673   4.556   2.834
25003SOL    HW279857   8.816   4.509   2.845
25004SOL     OW79858   8.617   4.213   2.116
25004SOL    HW179859   8.654   4.155   2.183
25004SOL    HW279860   8.665   4.295   2.125
25005SOL     OW79861   7.677   3.906   3.092
25005SOL    HW179862   7.740   3.960   3.140
25005SOL    HW279863   7.691   3.818   3.125
25006SOL     OW79864   7.415   5.077   3.153
25006SOL    HW179865   7.463   5.002   3.188
25006SOL    HW279866   7.471   5.152   3.173
25007SOL     OW79867   8.138   4.440   2.878
25007SOL    HW179868   8.162   4.394   2.959
25007SOL    HW279869   8.207   4.418   2.816
25008SOL     OW79870   9.178   4.708   3.740
25008SOL    HW179871   9.155   4.643   3.674
25008SOL    HW279872   9.145   4.791   3.704
25009SOL     OW79873   7.782   3.763   2.515
25009SOL    HW179874   7.764   3.853   2.542
25009SOL    HW279875   7.798   3.717   2.598
25010SOL     OW79876   9.073   4.120   2.192
25010SOL    HW179877   9.105   4.046   2.245
25010SOL    HW279878   9.052   4.188   2.256
25011SOL     OW79879   8.498   4.486   2.820
25011SOL    HW179880   8.487   4.481   2.915
25011SOL    HW279881   8.443   4.415   2.786
25012SOL     OW79882   8.365   5.285   3.556
25012SOL    HW179883   8.368   5.308   3.463
25012SOL    HW279884   8.400   5.196   3.560
25013SOL     OW79885   9.343   5.192   3.388
25013SOL    HW179886   9.354   5.274   3.340
25013SOL    HW279887   9.401   5.200   3.464
25014SOL     OW79888   7.869   4.663   3.721
25014SOL    HW179889   7.949   4.630   3.762
25014SOL    HW279890   7.861   4.611   3.641
25015SOL     OW79891   8.874   3.989   2.045
25015SOL    HW179892   8.879   3.897   2.067
25015SOL    HW279893   8.943   4.031   2.096
25016SOL     OW79894   8.780   4.579   1.868
25016SOL    HW179895   8.818   4.505   1.820
25016SOL    HW279896   8.819   4.656   1.827
25017SOL     OW79897   8.497   5.074   2.713
25017SOL    HW179898   8.509   5.001   2.653
25017SOL    HW279899   8.558   5.141   2.681
25018SOL     OW79900   7.720   4.563   2.847
25018SOL    HW179901   7.810   4.593   2.848
25018SOL    HW279902   7.726   4.468   2.859
25019SOL     OW79903   7.725   4.283   2.872
25019SOL    HW179904   7.686   4.196   2.861
25019SOL    HW279905   7.812   4.276   2.833
25020SOL     OW79906   8.561   4.090   3.510
25020SOL    HW179907   8.529   4.152   3.576
25020SOL    HW279908   8.654   4.113   3.499
25021SOL     OW79909   8.580   3.866   3.307
25021SOL    HW179910   8.558   3.923   3.381
25021SOL    HW279911   8.622   3.924   3.244
25022SOL     OW79912   7.455   5.047   2.083
25022SOL    HW179913   7.375   5.060   2.033
25022SOL    HW279914   7.454   4.954   2.106
25023SOL     OW79915   7.438   5.470   2.787
25023SOL    HW179916   7.455   5.382   2.754
25023SOL    HW279917   7.525   5.510   2.794
25024SOL     OW79918   8.418   4.438   3.076
25024SOL    HW179919   8.451   4.428   3.165
25024SOL    HW279920   8.351   4.370   3.068
25025SOL     OW79921   7.484   4.374   2.982
25025SOL    HW179922   7.565   4.347   2.940
25025SOL    HW279923   7.503   4.372   3.076
25026SOL     OW79924   7.594   4.249   3.601
25026SOL    HW179925   7.674   4.197   3.592
25026SOL    HW279926   7.612   4.328   3.550
25027SOL     OW79927   8.847   4.639   3.506
25027SOL    HW179928   8.846   4.735   3.505
25027SOL    HW279929   8.834   4.615   3.414
25028SOL     OW79930   8.260   4.213   2.215
25028SOL    HW179931   8.252   4.152   2.142
25028SOL    HW279932   8.207   4.288   2.189
25029SOL     OW79933   9.098   4.323   3.045
25029SOL    HW179934   9.067   4.264   3.114
25029SOL    HW279935   9.192   4.305   3.038
25030SOL     OW79936   7.625   5.284   3.628
25030SOL    HW179937   7.697   5.312   3.572
25030SOL    HW279938   7.661   5.211   3.679
25031SOL     OW79939   8.350   5.393   3.294
25031SOL    HW179940   8.344   5.359   3.205
25031SOL    HW279941   8.438   5.432   3.299
25032SOL     OW79942   7.901   4.228   1.998
25032SOL    HW179943   7.983   4.276   2.013
25032SOL    HW279944   7.832   4.292   2.018
25033SOL     OW79945   7.548   4.861   3.278
25033SOL    HW179946   7.632   4.885   3.316
25033SOL    HW279947   7.571   4.803   3.205
25034SOL     OW79948   8.728   4.753   3.065
25034SOL    HW179949   8.754   4.697   2.992
25034SOL    HW279950   8.656   4.806   3.031
25035SOL     OW79951   8.740   4.458   2.116
25035SOL    HW179952   8.768   4.526   2.177
25035SOL    HW279953   8.762   4.494   2.029
25036SOL     OW79954   9.215   5.412   3.054
25036SOL    HW179955   9.250   5.461   2.981
25036SOL    HW279956   9.192   5.327   3.017
25037SOL     OW79957   8.670   5.452   2.920
25037SOL    HW179958   8.747   5.484   2.874
25037SOL    HW279959   8.698   5.370   2.961
25038SOL     OW79960   7.516   5.009   2.853
25038SOL    HW179961   7.588   5.055   2.896
25038SOL    HW279962   7.557   4.930   2.817
25039SOL     OW79963   8.186   5.485   3.614
25039SOL    HW179964   8.218   5.525   3.695
25039SOL    HW279965   8.247   5.413   3.597
25040SOL     OW79966   9.151   3.877   2.309
25040SOL    HW179967   9.216   3.857   2.242
25040SOL    HW279968   9.150   3.799   2.365
25041SOL     OW79969   8.873   5.295   2.361
25041SOL    HW179970   8.917   5.321   2.280
25041SOL    HW279971   8.844   5.377   2.400
25042SOL     OW79972   7.534   5.516   3.746
25042SOL    HW179973   7.577   5.445   3.698
25042SOL    HW279974   7.605   5.559   3.794
25043SOL     OW79975   8.734   4.686   2.536
25043SOL    HW179976   8.802   4.621   2.552
25043SOL    HW279977   8.773   4.746   2.471
25044SOL     OW79978   8.263   5.016   3.265
25044SOL    HW179979   8.253   4.989   3.356
25044SOL    HW279980   8.206   5.092   3.255
25045SOL     OW79981   8.993   5.534   3.170
25045SOL    HW179982   9.073   5.502   3.128
25045SOL    HW279983   9.025   5.593   3.239
25046SOL     OW79984   9.325   3.926   2.829
25046SOL    HW179985   9.352   3.838   2.801
25046SOL    HW279986   9.238   3.937   2.790
25047SOL     OW79987   7.727   4.019   2.595
25047SOL    HW179988   7.649   4.061   2.559
25047SOL    HW279989   7.715   4.026   2.690
25048SOL     OW79990   8.613   5.309   1.863
25048SOL    HW179991   8.640   5.228   1.905
25048SOL    HW279992   8.681   5.326   1.797
25049SOL     OW79993   8.267   4.733   3.231
25049SOL    HW179994   8.318   4.727   3.149
25049SOL    HW279995   8.258   4.827   3.246
25050SOL     OW79996   8.303   4.617   2.135
25050SOL    HW179997   8.373   4.624   2.069
25050SOL    HW279998   8.343   4.565   2.205
25051SOL     OW79999   7.800   4.950   3.372
25051SOL    HW180000   7.805   5.032   3.322
25051SOL    HW280001   7.890   4.917   3.372
25052SOL     OW80002   9.046   5.022   3.146
25052SOL    HW180003   9.091   4.994   3.226
25052SOL    HW280004   8.995   5.098   3.173
25053SOL     OW80005   8.504   4.839   2.576
25053SOL    HW180006   8.447   4.781   2.627
25053SOL    HW280007   8.582   4.786   2.560
25054SOL     OW80008   8.476   3.980   2.816
25054SOL    HW180009   8.437   3.936   2.740
25054SOL    HW280010   8.406   4.036   2.849
25055SOL     OW80011   7.918   5.268   2.390
25055SOL    HW180012   7.989   5.211   2.363
25055SOL    HW280013   7.875   5.293   2.308
25056SOL     OW80014   9.186   4.085   3.258
25056SOL    HW180015   9.255   4.151   3.251
25056SOL    HW280016   9.219   4.012   3.206
25057SOL     OW80017   7.707   5.072   2.192
25057SOL    HW180018   7.617   5.068   2.160
25057SOL    HW280019   7.728   5.166   2.194
25058SOL     OW80020   7.596   4.800   3.749
25058SOL    HW180021   7.514   4.752   3.756
25058SOL    HW280022   7.663   4.732   3.738
25059SOL     OW80023   7.498   4.100   1.983
25059SOL    HW180024   7.519   4.022   1.933
25059SOL    HW280025   7.526   4.173   1.928
25060SOL     OW80026   8.844   4.571   3.241
25060SOL    HW180027   8.792   4.628   3.185
25060SOL    HW280028   8.934   4.580   3.209
25061SOL     OW80029   7.563   3.952   2.211
25061SOL    HW180030   7.551   4.007   2.133
25061SOL    HW280031   7.631   3.890   2.187
25062SOL     OW80032   8.647   5.073   2.031
25062SOL    HW180033   8.581   5.004   2.028
25062SOL    HW280034   8.651   5.099   2.123
25063SOL     OW80035   8.039   4.585   3.293
25063SOL    HW180036   8.106   4.651   3.279
25063SOL    HW280037   8.086   4.502   3.294
25064SOL     OW80038   8.894   5.538   2.768
25064SOL    HW180039   8.904   5.632   2.757
25064SOL    HW280040   8.983   5.507   2.787
25065SOL     OW80041   8.043   4.269   3.577
25065SOL    HW180042   8.092   4.218   3.643
25065SOL    HW280043   8.016   4.204   3.513
25066SOL     OW80044   8.834   4.918   3.520
25066SOL    HW180045   8.785   4.912   3.602
25066SOL    HW280046   8.893   4.992   3.534
25067SOL     OW80047   7.797   5.381   3.441
25067SOL    HW180048   7.767   5.386   3.351
25067SOL    HW280049   7.888   5.409   3.438
25068SOL     OW80050   9.093   4.601   3.128
25068SOL    HW180051   9.100   4.517   3.082
25068SOL    HW280052   9.084   4.666   3.058
25069SOL     OW80053   8.676   4.034   2.324
25069SOL    HW180054   8.744   3.967   2.327
25069SOL    HW280055   8.690   4.087   2.402
25070SOL     OW80056   7.942   4.428   2.563
25070SOL    HW180057   8.012   4.491   2.577
25070SOL    HW280058   7.923   4.432   2.469
25071SOL     OW80059   9.185   4.079   3.545
25071SOL    HW180060   9.201   4.082   3.451
25071SOL    HW280061   9.110   4.020   3.555
25072SOL     OW80062   9.211   4.698   3.366
25072SOL    HW180063   9.201   4.793   3.372
25072SOL    HW280064   9.181   4.676   3.278
25073SOL     OW80065   8.210   5.103   1.894
25073SOL    HW180066   8.247   5.159   1.962
25073SOL    HW280067   8.249   5.135   1.812
25074SOL     OW80068   8.326   4.688   2.732
25074SOL    HW180069   8.387   4.624   2.769
25074SOL    HW280070   8.284   4.729   2.807
25075SOL     OW80071   8.506   4.625   1.936
25075SOL    HW180072   8.493   4.698   1.875
25075SOL    HW280073   8.598   4.602   1.926
25076SOL     OW80074   9.293   5.264   2.714
25076SOL    HW180075   9.223   5.251   2.651
25076SOL    HW280076   9.261   5.225   2.795
25077SOL     OW80077   7.689   5.058   3.783
25077SOL    HW180078   7.640   4.976   3.777
25077SOL    HW280079   7.702   5.072   3.877
25078SOL     OW80080   7.515   4.881   2.528
25078SOL    HW180081   7.569   4.871   2.606
25078SOL    HW280082   7.577   4.875   2.455
25079SOL     OW80083   9.282   3.886   3.098
25079SOL    HW180084   9.294   3.793   3.114
25079SOL    HW280085   9.283   3.894   3.002
25080SOL     OW80086   7.797   4.152   2.349
25080SOL    HW180087   7.848   4.097   2.288
25080SOL    HW280088   7.811   4.112   2.435
25081SOL     OW80089   9.132   5.177   2.928
25081SOL    HW180090   9.047   5.174   2.884
25081SOL    HW280091   9.124   5.116   3.001
25082SOL     OW80092   7.746   4.288   3.150
25082SOL    HW180093   7.791   4.210   3.184
25082SOL    HW280094   7.760   4.285   3.056
25083SOL     OW80095   8.268   5.370   2.516
25083SOL    HW180096   8.268   5.451   2.465
25083SOL    HW280097   8.318   5.308   2.462
25084SOL     OW80098   8.877   3.937   2.959
25084SOL    HW180099   8.904   3.846   2.952
25084SOL    HW280100   8.857   3.950   3.052
25085SOL     OW80101   8.307   3.794   2.967
25085SOL    HW180102   8.321   3.714   2.917
25085SOL    HW280103   8.383   3.849   2.945
25086SOL     OW80104   8.139   5.083   2.343
25086SOL    HW180105   8.145   4.999   2.297
25086SOL    HW280106   8.223   5.125   2.328
25087SOL     OW80107   8.089   5.234   3.217
25087SOL    HW180108   8.088   5.307   3.278
25087SOL    HW280109   8.152   5.260   3.149
25088SOL     OW80110   8.840   3.718   2.076
25088SOL    HW180111   8.882   3.655   2.018
25088SOL    HW280112   8.748   3.694   2.076
25089SOL     OW80113   8.690   4.194   2.544
25089SOL    HW180114   8.660   4.284   2.544
25089SOL    HW280115   8.714   4.177   2.635
25090SOL     OW80116   9.067   3.946   2.749
25090SOL    HW180117   8.995   3.959   2.811
25090SOL    HW280118   9.060   4.019   2.689
25091SOL     OW80119   7.465   4.779   2.173
25091SOL    HW180120   7.557   4.765   2.151
25091SOL    HW280121   7.429   4.690   2.178
25092SOL     OW80122   8.297   5.430   2.125
25092SOL    HW180123   8.244   5.458   2.051
25092SOL    HW280124   8.267   5.484   2.198
25093SOL     OW80125   7.642   4.323   3.860
25093SOL    HW180126   7.737   4.319   3.869
25093SOL    HW280127   7.625   4.301   3.768
25094SOL     OW80128   7.649   4.037   4.789
25094SOL    HW180129   7.692   3.999   4.866
25094SOL    HW280130   7.572   3.982   4.775
25095SOL     OW80131   7.356   4.005   4.474
25095SOL    HW180132   7.447   4.035   4.481
25095SOL    HW280133   7.350   3.968   4.386
25096SOL     OW80134   7.959   5.035   4.877
25096SOL    HW180135   8.015   4.967   4.840
25096SOL    HW280136   8.019   5.101   4.910
25097SOL     OW80137   8.550   4.419   4.410
25097SOL    HW180138   8.604   4.493   4.383
25097SOL    HW280139   8.509   4.448   4.492
25098SOL     OW80140   9.190   4.309   3.973
25098SOL    HW180141   9.174   4.318   3.879
25098SOL    HW280142   9.159   4.221   3.994
25099SOL     OW80143   8.171   4.847   4.793
25099SOL    HW180144   8.224   4.880   4.865
25099SOL    HW280145   8.181   4.912   4.723
25100SOL     OW80146   8.246   4.630   5.581
25100SOL    HW180147   8.314   4.600   5.642
25100SOL    HW280148   8.259   4.576   5.503
25101SOL     OW80149   8.149   4.792   4.369
25101SOL    HW180150   8.212   4.752   4.429
25101SOL    HW280151   8.199   4.860   4.324
25102SOL     OW80152   8.066   4.934   5.500
25102SOL    HW180153   8.135   4.981   5.547
25102SOL    HW280154   8.111   4.889   5.429
25103SOL     OW80155   7.771   5.179   4.730
25103SOL    HW180156   7.824   5.105   4.759
25103SOL    HW280157   7.832   5.236   4.684
25104SOL     OW80158   8.931   5.247   5.106
25104SOL    HW180159   9.000   5.288   5.053
25104SOL    HW280160   8.958   5.262   5.196
25105SOL     OW80161   9.039   4.259   4.496
25105SOL    HW180162   9.028   4.282   4.404
25105SOL    HW280163   9.133   4.243   4.506
25106SOL     OW80164   7.649   5.435   4.219
25106SOL    HW180165   7.666   5.509   4.277
25106SOL    HW280166   7.725   5.432   4.161
25107SOL     OW80167   8.510   5.060   5.544
25107SOL    HW180168   8.572   5.028   5.609
25107SOL    HW280169   8.487   4.983   5.493
25108SOL     OW80170   7.676   5.185   4.332
25108SOL    HW180171   7.664   5.272   4.292
25108SOL    HW280172   7.768   5.182   4.356
25109SOL     OW80173   7.694   4.841   4.616
25109SOL    HW180174   7.706   4.756   4.659
25109SOL    HW280175   7.777   4.857   4.571
25110SOL     OW80176   8.050   5.465   5.204
25110SOL    HW180177   7.961   5.455   5.238
25110SOL    HW280178   8.101   5.494   5.280
25111SOL     OW80179   9.014   3.872   5.138
25111SOL    HW180180   9.093   3.891   5.088
25111SOL    HW280181   9.030   3.913   5.223
25112SOL     OW80182   7.546   4.262   4.302
25112SOL    HW180183   7.558   4.200   4.374
25112SOL    HW280184   7.631   4.308   4.296
25113SOL     OW80185   9.331   5.465   4.032
25113SOL    HW180186   9.396   5.451   4.100
25113SOL    HW280187   9.351   5.552   3.996
25114SOL     OW80188   7.356   5.305   3.815
25114SOL    HW180189   7.407   5.251   3.875
25114SOL    HW280190   7.414   5.377   3.792
25115SOL     OW80191   9.122   4.608   4.340
25115SOL    HW180192   9.210   4.607   4.376
25115SOL    HW280193   9.123   4.680   4.277
25116SOL     OW80194   9.098   4.815   4.140
25116SOL    HW180195   9.189   4.812   4.110
25116SOL    HW280196   9.070   4.905   4.124
25117SOL     OW80197   7.583   4.495   5.305
25117SOL    HW180198   7.678   4.499   5.304
25117SOL    HW280199   7.556   4.571   5.357
25118SOL     OW80200   7.941   5.156   4.409
25118SOL    HW180201   7.940   5.063   4.429
25118SOL    HW280202   7.984   5.162   4.323
25119SOL     OW80203   8.760   4.975   5.188
25119SOL    HW180204   8.831   4.977   5.124
25119SOL    HW280205   8.799   4.936   5.266
25120SOL     OW80206   7.633   4.669   4.983
25120SOL    HW180207   7.719   4.632   5.003
25120SOL    HW280208   7.614   4.638   4.894
25121SOL     OW80209   8.982   4.668   3.939
25121SOL    HW180210   9.050   4.667   3.871
25121SOL    HW280211   9.025   4.706   4.015
25122SOL     OW80212   8.676   5.437   5.428
25122SOL    HW180213   8.609   5.494   5.388
25122SOL    HW280214   8.684   5.364   5.367
25123SOL     OW80215   8.975   5.142   4.691
25123SOL    HW180216   8.905   5.206   4.674
25123SOL    HW280217   9.007   5.119   4.604
25124SOL     OW80218   8.078   4.531   3.833
25124SOL    HW180219   8.137   4.496   3.766
25124SOL    HW280220   8.135   4.553   3.907
25125SOL     OW80221   8.718   4.072   4.663
25125SOL    HW180222   8.643   4.014   4.652
25125SOL    HW280223   8.792   4.023   4.626
25126SOL     OW80224   8.133   4.331   5.221
25126SOL    HW180225   8.079   4.311   5.297
25126SOL    HW280226   8.103   4.270   5.154
25127SOL     OW80227   8.843   4.192   5.357
25127SOL    HW180228   8.850   4.243   5.437
25127SOL    HW280229   8.899   4.116   5.371
25128SOL     OW80230   8.400   4.580   5.317
25128SOL    HW180231   8.446   4.505   5.281
25128SOL    HW280232   8.364   4.625   5.241
25129SOL     OW80233   8.554   4.097   4.922
25129SOL    HW180234   8.546   4.045   5.002
25129SOL    HW280235   8.499   4.052   4.858
25130SOL     OW80236   8.389   4.373   4.119
25130SOL    HW180237   8.416   4.368   4.211
25130SOL    HW280238   8.324   4.304   4.108
25131SOL     OW80239   7.496   4.633   4.522
25131SOL    HW180240   7.543   4.579   4.586
25131SOL    HW280241   7.564   4.687   4.483
25132SOL     OW80242   7.529   5.568   5.304
25132SOL    HW180243   7.540   5.562   5.399
25132SOL    HW280244   7.552   5.659   5.284
25133SOL     OW80245   9.193   4.276   5.563
25133SOL    HW180246   9.141   4.342   5.516
25133SOL    HW280247   9.278   4.277   5.519
25134SOL     OW80248   8.820   4.811   4.203
25134SOL    HW180249   8.913   4.815   4.180
25134SOL    HW280250   8.783   4.892   4.169
25135SOL     OW80251   7.976   3.937   4.603
25135SOL    HW180252   7.995   3.932   4.696
25135SOL    HW280253   7.959   4.030   4.587
25136SOL     OW80254   8.434   5.212   4.241
25136SOL    HW180255   8.400   5.246   4.158
25136SOL    HW280256   8.527   5.233   4.240
25137SOL     OW80257   7.800   5.573   4.654
25137SOL    HW180258   7.853   5.495   4.636
25137SOL    HW280259   7.861   5.646   4.641
25138SOL     OW80260   9.217   4.775   4.628
25138SOL    HW180261   9.249   4.848   4.574
25138SOL    HW280262   9.145   4.813   4.678
25139SOL     OW80263   8.643   5.224   5.253
25139SOL    HW180264   8.688   5.140   5.250
25139SOL    HW280265   8.652   5.259   5.165
25140SOL     OW80266   7.810   4.598   4.001
25140SOL    HW180267   7.889   4.625   4.048
25140SOL    HW280268   7.835   4.600   3.909
25141SOL     OW80269   8.931   4.539   4.519
25141SOL    HW180270   8.953   4.446   4.522
25141SOL    HW280271   8.999   4.578   4.465
25142SOL     OW80272   7.806   5.018   5.451
25142SOL    HW180273   7.805   5.015   5.355
25142SOL    HW280274   7.890   4.978   5.475
25143SOL     OW80275   7.514   4.043   5.224
25143SOL    HW180276   7.543   4.128   5.192
25143SOL    HW280277   7.595   3.999   5.250
25144SOL     OW80278   9.039   4.989   3.836
25144SOL    HW180279   9.017   5.040   3.914
25144SOL    HW280280   9.025   5.049   3.763
25145SOL     OW80281   7.875   5.450   4.074
25145SOL    HW180282   7.933   5.506   4.125
25145SOL    HW280283   7.929   5.418   4.001
25146SOL     OW80284   8.836   3.831   4.183
25146SOL    HW180285   8.829   3.801   4.092
25146SOL    HW280286   8.907   3.778   4.220
25147SOL     OW80287   7.754   5.554   4.930
25147SOL    HW180288   7.796   5.472   4.957
25147SOL    HW280289   7.771   5.560   4.836
25148SOL     OW80290   8.367   5.336   4.660
25148SOL    HW180291   8.454   5.315   4.625
25148SOL    HW280292   8.311   5.340   4.582
25149SOL     OW80293   7.756   4.360   4.152
25149SOL    HW180294   7.808   4.417   4.095
25149SOL    HW280295   7.819   4.300   4.190
25150SOL     OW80296   8.984   3.959   5.442
25150SOL    HW180297   8.972   3.986   5.533
25150SOL    HW280298   8.969   3.864   5.443
25151SOL     OW80299   7.920   3.849   3.764
25151SOL    HW180300   8.001   3.899   3.763
25151SOL    HW280301   7.899   3.835   3.672
25152SOL     OW80302   8.340   5.238   4.916
25152SOL    HW180303   8.337   5.266   4.824
25152SOL    HW280304   8.431   5.251   4.942
25153SOL     OW80305   8.792   4.280   5.085
25153SOL    HW180306   8.819   4.249   5.171
25153SOL    HW280307   8.823   4.371   5.081
25154SOL     OW80308   8.208   5.054   4.622
25154SOL    HW180309   8.304   5.055   4.619
25154SOL    HW280310   8.181   5.117   4.555
25155SOL     OW80311   8.390   4.224   4.637
25155SOL    HW180312   8.362   4.227   4.545
25155SOL    HW280313   8.419   4.134   4.651
25156SOL     OW80314   8.777   4.889   3.802
25156SOL    HW180315   8.860   4.935   3.811
25156SOL    HW280316   8.711   4.954   3.825
25157SOL     OW80317   7.740   3.764   3.944
25157SOL    HW180318   7.802   3.807   3.884
25157SOL    HW280319   7.794   3.699   3.990
25158SOL     OW80320   8.401   3.998   4.233
25158SOL    HW180321   8.346   4.050   4.175
25158SOL    HW280322   8.488   4.003   4.194
25159SOL     OW80323   8.527   4.369   5.170
25159SOL    HW180324   8.512   4.297   5.231
25159SOL    HW280325   8.613   4.351   5.132
25160SOL     OW80326   8.602   5.275   4.529
25160SOL    HW180327   8.643   5.274   4.442
25160SOL    HW280328   8.671   5.307   4.587
25161SOL     OW80329   7.898   4.882   4.439
25161SOL    HW180330   7.986   4.843   4.430
25161SOL    HW280331   7.855   4.862   4.356
25162SOL     OW80332   8.671   5.541   4.310
25162SOL    HW180333   8.688   5.610   4.247
25162SOL    HW280334   8.615   5.582   4.376
25163SOL     OW80335   8.479   4.265   3.703
25163SOL    HW180336   8.413   4.334   3.707
25163SOL    HW280337   8.509   4.254   3.793
25164SOL     OW80338   7.546   4.303   5.112
25164SOL    HW180339   7.639   4.287   5.093
25164SOL    HW280340   7.546   4.374   5.176
25165SOL     OW80341   7.994   3.948   4.887
25165SOL    HW180342   8.053   3.909   4.952
25165SOL    HW280343   7.906   3.934   4.923
25166SOL     OW80344   8.305   4.211   4.381
25166SOL    HW180345   8.247   4.227   4.306
25166SOL    HW280346   8.360   4.139   4.352
25167SOL     OW80347   8.339   3.830   4.441
25167SOL    HW180348   8.372   3.881   4.367
25167SOL    HW280349   8.356   3.739   4.417
25168SOL     OW80350   8.890   4.877   4.475
25168SOL    HW180351   8.860   4.871   4.384
25168SOL    HW280352   8.963   4.939   4.472
25169SOL     OW80353   8.901   4.314   4.751
25169SOL    HW180354   8.937   4.288   4.667
25169SOL    HW280355   8.977   4.323   4.809
25170SOL     OW80356   9.302   4.518   4.108
25170SOL    HW180357   9.354   4.469   4.172
25170SOL    HW280358   9.262   4.451   4.053
25171SOL     OW80359   8.803   4.254   3.786
25171SOL    HW180360   8.729   4.253   3.846
25171SOL    HW280361   8.856   4.178   3.811
25172SOL     OW80362   9.171   4.990   5.266
25172SOL    HW180363   9.242   4.931   5.239
25172SOL    HW280364   9.217   5.070   5.295
25173SOL     OW80365   8.564   4.990   5.000
25173SOL    HW180366   8.476   4.988   5.036
25173SOL    HW280367   8.622   4.974   5.075
25174SOL     OW80368   9.077   5.328   5.344
25174SOL    HW180369   9.090   5.395   5.276
25174SOL    HW280370   9.163   5.286   5.353
25175SOL     OW80371   8.654   4.888   4.756
25175SOL    HW180372   8.631   4.917   4.844
25175SOL    HW280373   8.598   4.939   4.698
25176SOL     OW80374   8.995   4.881   4.783
25176SOL    HW180375   9.004   4.896   4.877
25176SOL    HW280376   8.994   4.969   4.744
25177SOL     OW80377   8.395   3.784   5.067
25177SOL    HW180378   8.425   3.754   4.982
25177SOL    HW280379   8.469   3.836   5.101
25178SOL     OW80380   8.423   4.811   5.466
25178SOL    HW180381   8.345   4.777   5.510
25178SOL    HW280382   8.443   4.746   5.399
25179SOL     OW80383   8.029   4.706   4.133
25179SOL    HW180384   8.064   4.734   4.218
25179SOL    HW280385   8.106   4.680   4.082
25180SOL     OW80386   7.876   4.542   5.008
25180SOL    HW180387   7.945   4.563   5.071
25180SOL    HW280388   7.852   4.452   5.027
25181SOL     OW80389   7.556   5.372   5.020
25181SOL    HW180390   7.580   5.461   4.992
25181SOL    HW280391   7.639   5.325   5.022
25182SOL     OW80392   7.783   4.844   4.188
25182SOL    HW180393   7.786   4.923   4.133
25182SOL    HW280394   7.857   4.791   4.157
25183SOL     OW80395   7.967   4.221   4.616
25183SOL    HW180396   7.977   4.273   4.537
25183SOL    HW280397   8.040   4.248   4.672
25184SOL     OW80398   8.732   5.054   4.103
25184SOL    HW180399   8.826   5.064   4.090
25184SOL    HW280400   8.709   5.126   4.163
25185SOL     OW80401   8.687   5.247   4.973
25185SOL    HW180402   8.776   5.245   5.010
25185SOL    HW280403   8.665   5.155   4.960
25186SOL     OW80404   9.063   4.352   4.236
25186SOL    HW180405   9.082   4.442   4.263
25186SOL    HW280406   9.096   4.346   4.147
25187SOL     OW80407   7.805   5.268   4.992
25187SOL    HW180408   7.790   5.226   4.907
25187SOL    HW280409   7.900   5.268   5.003
25188SOL     OW80410   7.853   4.514   5.332
25188SOL    HW180411   7.927   4.549   5.283
25188SOL    HW280412   7.888   4.435   5.375
25189SOL     OW80413   9.068   4.484   5.426
25189SOL    HW180414   8.979   4.516   5.411
25189SOL    HW280415   9.119   4.520   5.354
25190SOL     OW80416   8.344   3.803   5.431
25190SOL    HW180417   8.389   3.866   5.486
25190SOL    HW280418   8.414   3.754   5.388
25191SOL     OW80419   7.949   4.669   4.771
25191SOL    HW180420   8.027   4.724   4.777
25191SOL    HW280421   7.941   4.629   4.857
25192SOL     OW80422   8.749   4.565   4.761
25192SOL    HW180423   8.661   4.538   4.735
25192SOL    HW280424   8.804   4.488   4.744
25193SOL     OW80425   8.591   4.244   3.965
25193SOL    HW180426   8.617   4.174   4.025
25193SOL    HW280427   8.526   4.295   4.015
25194SOL     OW80428   7.746   3.907   5.016
25194SOL    HW180429   7.754   3.922   5.110
25194SOL    HW280430   7.731   3.813   5.008
25195SOL     OW80431   7.480   5.033   5.036
25195SOL    HW180432   7.513   4.965   5.094
25195SOL    HW280433   7.511   5.008   4.949
25196SOL     OW80434   8.175   4.340   4.762
25196SOL    HW180435   8.252   4.297   4.724
25196SOL    HW280436   8.163   4.419   4.709
25197SOL     OW80437   9.199   4.680   5.579
25197SOL    HW180438   9.153   4.609   5.536
25197SOL    HW280439   9.144   4.704   5.653
25198SOL     OW80440   7.760   3.767   4.326
25198SOL    HW180441   7.764   3.863   4.326
25198SOL    HW280442   7.757   3.743   4.419
25199SOL     OW80443   9.056   4.089   4.079
25199SOL    HW180444   9.108   4.024   4.126
25199SOL    HW280445   9.015   4.141   4.148
25200SOL     OW80446   8.479   4.477   4.701
25200SOL    HW180447   8.455   4.486   4.793
25200SOL    HW280448   8.462   4.385   4.680
25201SOL     OW80449   8.389   5.292   5.350
25201SOL    HW180450   8.410   5.383   5.333
25201SOL    HW280451   8.472   5.245   5.335
25202SOL     OW80452   9.334   5.220   5.317
25202SOL    HW180453   9.373   5.241   5.233
25202SOL    HW280454   9.407   5.223   5.379
25203SOL     OW80455   7.781   4.678   5.536
25203SOL    HW180456   7.854   4.688   5.597
25203SOL    HW280457   7.813   4.616   5.470
25204SOL     OW80458   8.919   4.006   3.851
25204SOL    HW180459   8.875   3.925   3.879
25204SOL    HW280460   8.972   4.031   3.926
25205SOL     OW80461   8.748   4.523   3.734
25205SOL    HW180462   8.773   4.431   3.741
25205SOL    HW280463   8.782   4.551   3.649
25206SOL     OW80464   8.481   5.040   4.597
25206SOL    HW180465   8.495   4.974   4.529
25206SOL    HW280466   8.525   5.118   4.565
25207SOL     OW80467   7.705   4.567   4.705
25207SOL    HW180468   7.795   4.596   4.719
25207SOL    HW280469   7.710   4.472   4.709
25208SOL     OW80470   7.726   4.290   4.725
25208SOL    HW180471   7.701   4.203   4.757
25208SOL    HW280472   7.810   4.276   4.682
25209SOL     OW80473   8.567   4.159   5.353
25209SOL    HW180474   8.531   4.181   5.439
25209SOL    HW280475   8.662   4.173   5.362
25210SOL     OW80476   8.594   3.957   5.161
25210SOL    HW180477   8.572   4.018   5.231
25210SOL    HW280478   8.689   3.949   5.165
25211SOL     OW80479   7.415   5.062   3.963
25211SOL    HW180480   7.359   5.029   3.893
25211SOL    HW280481   7.460   4.985   3.997
25212SOL     OW80482   7.526   5.532   4.659
25212SOL    HW180483   7.522   5.443   4.624
25212SOL    HW280484   7.619   5.554   4.658
25213SOL     OW80485   7.951   5.349   4.606
25213SOL    HW180486   8.031   5.401   4.607
25213SOL    HW280487   7.962   5.289   4.533
25214SOL     OW80488   8.383   4.481   4.960
25214SOL    HW180489   8.434   4.444   5.032
25214SOL    HW280490   8.304   4.426   4.957
25215SOL     OW80491   7.487   4.364   4.844
25215SOL    HW180492   7.566   4.343   4.794
25215SOL    HW280493   7.512   4.347   4.936
25216SOL     OW80494   7.617   4.268   5.463
25216SOL    HW180495   7.687   4.223   5.416
25216SOL    HW280496   7.594   4.343   5.408
25217SOL     OW80497   8.836   4.616   5.348
25217SOL    HW180498   8.873   4.704   5.351
25217SOL    HW280499   8.829   4.596   5.255
25218SOL     OW80500   9.109   4.309   4.926
25218SOL    HW180501   9.124   4.254   5.003
25218SOL    HW280502   9.194   4.312   4.882
25219SOL     OW80503   7.665   5.252   5.454
25219SOL    HW180504   7.650   5.272   5.546
25219SOL    HW280505   7.719   5.172   5.456
25220SOL     OW80506   8.056   4.204   4.975
25220SOL    HW180507   8.043   4.117   4.938
25220SOL    HW280508   8.099   4.254   4.905
25221SOL     OW80509   7.911   4.315   3.890
25221SOL    HW180510   7.971   4.245   3.914
25221SOL    HW280511   7.967   4.386   3.860
25222SOL     OW80512   7.516   4.809   5.190
25222SOL    HW180513   7.554   4.783   5.274
25222SOL    HW280514   7.564   4.758   5.125
25223SOL     OW80515   9.214   5.492   4.875
25223SOL    HW180516   9.284   5.500   4.810
25223SOL    HW280517   9.198   5.398   4.882
25224SOL     OW80518   8.778   5.350   4.724
25224SOL    HW180519   8.836   5.425   4.736
25224SOL    HW280520   8.741   5.334   4.810
25225SOL     OW80521   7.499   4.975   4.769
25225SOL    HW180522   7.583   4.952   4.730
25225SOL    HW280523   7.436   4.920   4.721
25226SOL     OW80524   8.240   5.440   5.542
25226SOL    HW180525   8.252   5.521   5.493
25226SOL    HW280526   8.294   5.376   5.495
25227SOL     OW80527   9.218   3.914   4.223
25227SOL    HW180528   9.281   3.901   4.152
25227SOL    HW280529   9.180   3.827   4.238
25228SOL     OW80530   8.723   5.274   4.275
25228SOL    HW180531   8.816   5.257   4.264
25228SOL    HW280532   8.715   5.369   4.279
25229SOL     OW80533   7.576   5.545   5.569
25229SOL    HW180534   7.539   5.465   5.607
25229SOL    HW280535   7.646   5.570   5.629
25230SOL     OW80536   8.712   4.637   4.384
25230SOL    HW180537   8.790   4.597   4.425
25230SOL    HW280538   8.747   4.691   4.313
25231SOL     OW80539   8.280   5.000   5.049
25231SOL    HW180540   8.242   5.031   5.131
25231SOL    HW280541   8.296   5.079   4.998
25232SOL     OW80542   8.036   5.384   3.869
25232SOL    HW180543   8.111   5.442   3.855
25232SOL    HW280544   8.073   5.296   3.865
25233SOL     OW80545   9.112   5.497   5.134
25233SOL    HW180546   9.150   5.491   5.046
25233SOL    HW280547   9.075   5.585   5.138
25234SOL     OW80548   9.250   3.898   4.673
25234SOL    HW180549   9.291   3.812   4.659
25234SOL    HW280550   9.159   3.886   4.644
25235SOL     OW80551   7.616   4.078   4.501
25235SOL    HW180552   7.692   4.062   4.445
25235SOL    HW280553   7.650   4.074   4.590
25236SOL     OW80554   8.515   5.347   3.792
25236SOL    HW180555   8.608   5.354   3.769
25236SOL    HW280556   8.473   5.314   3.713
25237SOL     OW80557   8.301   4.725   5.103
25237SOL    HW180558   8.343   4.683   5.028
25237SOL    HW280559   8.301   4.818   5.082
25238SOL     OW80560   8.267   4.608   4.019
25238SOL    HW180561   8.337   4.664   3.986
25238SOL    HW280562   8.311   4.529   4.049
25239SOL     OW80563   7.806   5.037   5.173
25239SOL    HW180564   7.799   5.120   5.125
25239SOL    HW280565   7.858   4.980   5.116
25240SOL     OW80566   8.996   4.983   5.043
25240SOL    HW180567   9.065   4.966   5.108
25240SOL    HW280568   8.987   5.078   5.043
25241SOL     OW80569   8.511   4.816   4.449
25241SOL    HW180570   8.443   4.759   4.484
25241SOL    HW280571   8.578   4.756   4.417
25242SOL     OW80572   8.459   3.949   4.669
25242SOL    HW180573   8.419   3.917   4.587
25242SOL    HW280574   8.468   3.871   4.723
25243SOL     OW80575   8.020   5.129   4.139
25243SOL    HW180576   8.095   5.080   4.173
25243SOL    HW280577   8.048   5.158   4.052
25244SOL     OW80578   9.221   4.127   5.120
25244SOL    HW180579   9.297   4.185   5.115
25244SOL    HW280580   9.241   4.055   5.060
25245SOL     OW80581   7.759   5.082   4.051
25245SOL    HW180582   7.709   5.131   4.116
25245SOL    HW280583   7.850   5.110   4.066
25246SOL     OW80584   7.531   4.726   5.459
25246SOL    HW180585   7.468   4.705   5.528
25246SOL    HW280586   7.616   4.708   5.497
25247SOL     OW80587   8.141   3.868   5.111
25247SOL    HW180588   8.228   3.834   5.092
25247SOL    HW280589   8.152   3.922   5.189
25248SOL     OW80590   7.518   4.008   3.791
25248SOL    HW180591   7.528   3.921   3.751
25248SOL    HW280592   7.581   4.063   3.745
25249SOL     OW80593   8.844   4.554   5.062
25249SOL    HW180594   8.793   4.585   4.987
25249SOL    HW280595   8.935   4.574   5.039
25250SOL     OW80596   7.499   3.865   4.031
25250SOL    HW180597   7.494   3.922   3.954
25250SOL    HW280598   7.589   3.832   4.031
25251SOL     OW80599   8.539   5.008   3.893
25251SOL    HW180600   8.446   5.003   3.914
25251SOL    HW280601   8.580   5.036   3.974
25252SOL     OW80602   8.076   4.593   5.187
25252SOL    HW180603   8.152   4.645   5.163
25252SOL    HW280604   8.111   4.505   5.203
25253SOL     OW80605   8.963   5.551   4.762
25253SOL    HW180606   8.988   5.607   4.688
25253SOL    HW280607   9.046   5.529   4.804
25254SOL     OW80608   8.937   4.873   5.368
25254SOL    HW180609   8.931   4.898   5.460
25254SOL    HW280610   9.022   4.907   5.339
25255SOL     OW80611   7.783   5.444   5.291
25255SOL    HW180612   7.701   5.487   5.268
25255SOL    HW280613   7.756   5.368   5.343
25256SOL     OW80614   9.095   4.588   4.950
25256SOL    HW180615   9.112   4.494   4.936
25256SOL    HW280616   9.150   4.632   4.885
25257SOL     OW80617   8.664   4.052   4.161
25257SOL    HW180618   8.721   3.975   4.162
25257SOL    HW280619   8.682   4.097   4.244
25258SOL     OW80620   8.015   4.401   4.414
25258SOL    HW180621   8.065   4.460   4.358
25258SOL    HW280622   7.983   4.332   4.355
25259SOL     OW80623   9.251   3.995   5.363
25259SOL    HW180624   9.247   4.050   5.285
25259SOL    HW280625   9.163   3.999   5.400
25260SOL     OW80626   9.168   4.625   5.216
25260SOL    HW180627   9.237   4.691   5.219
25260SOL    HW280628   9.147   4.617   5.123
25261SOL     OW80629   8.139   5.555   4.606
25261SOL    HW180630   8.182   5.565   4.522
25261SOL    HW280631   8.198   5.596   4.669
25262SOL     OW80632   8.312   4.676   4.584
25262SOL    HW180633   8.368   4.610   4.625
25262SOL    HW280634   8.267   4.719   4.657
25263SOL     OW80635   8.527   4.666   3.827
25263SOL    HW180636   8.496   4.736   3.769
25263SOL    HW280637   8.569   4.603   3.769
25264SOL     OW80638   9.312   5.287   4.621
25264SOL    HW180639   9.230   5.240   4.604
25264SOL    HW280640   9.368   5.222   4.663
25265SOL     OW80641   7.568   4.972   5.590
25265SOL    HW180642   7.543   4.891   5.547
25265SOL    HW280643   7.657   4.990   5.560
25266SOL     OW80644   7.536   4.968   4.426
25266SOL    HW180645   7.595   4.926   4.489
25266SOL    HW280646   7.591   5.031   4.379
25267SOL     OW80647   8.188   5.119   5.285
25267SOL    HW180648   8.131   5.122   5.362
25267SOL    HW280649   8.259   5.180   5.305
25268SOL     OW80650   9.225   3.901   4.958
25268SOL    HW180651   9.242   3.807   4.958
25268SOL    HW280652   9.234   3.927   4.867
25269SOL     OW80653   9.130   5.232   4.899
25269SOL    HW180654   9.078   5.198   4.826
25269SOL    HW280655   9.190   5.162   4.920
25270SOL     OW80656   7.817   4.281   5.085
25270SOL    HW180657   7.814   4.235   5.168
25270SOL    HW280658   7.895   4.247   5.041
25271SOL     OW80659   8.253   5.334   4.409
25271SOL    HW180660   8.242   5.416   4.362
25271SOL    HW280661   8.314   5.283   4.356
25272SOL     OW80662   8.874   3.955   4.913
25272SOL    HW180663   8.891   3.887   4.848
25272SOL    HW280664   8.917   3.923   4.993
25273SOL     OW80665   8.485   3.713   4.808
25273SOL    HW180666   8.458   3.651   4.740
25273SOL    HW280667   8.572   3.683   4.833
25274SOL     OW80668   8.253   4.999   4.215
25274SOL    HW180669   8.263   4.985   4.121
25274SOL    HW280670   8.322   5.061   4.238
25275SOL     OW80671   8.078   5.269   5.003
25275SOL    HW180672   8.085   5.320   5.084
25275SOL    HW280673   8.168   5.264   4.971
25276SOL     OW80674   8.815   3.756   3.913
25276SOL    HW180675   8.869   3.696   3.863
25276SOL    HW280676   8.735   3.708   3.931
25277SOL     OW80677   8.690   4.182   4.402
25277SOL    HW180678   8.641   4.264   4.398
25277SOL    HW280679   8.700   4.163   4.495
25278SOL     OW80680   8.957   3.986   4.549
25278SOL    HW180681   8.951   3.936   4.468
25278SOL    HW280682   8.983   4.074   4.521
25279SOL     OW80683   7.510   4.817   4.083
25279SOL    HW180684   7.595   4.832   4.124
25279SOL    HW280685   7.515   4.727   4.050
25280SOL     OW80686   8.304   5.302   4.019
25280SOL    HW180687   8.260   5.231   3.972
25280SOL    HW280688   8.332   5.362   3.951
25281SOL     OW80689   7.664   4.363   5.715
25281SOL    HW180690   7.647   4.345   5.623
25281SOL    HW280691   7.759   4.361   5.723
25282SOL     OW80692   7.683   3.950   6.606
25282SOL    HW180693   7.686   3.940   6.701
25282SOL    HW280694   7.774   3.962   6.579
25283SOL     OW80695   7.442   4.048   6.286
25283SOL    HW180696   7.480   4.134   6.267
25283SOL    HW280697   7.417   4.014   6.200
25284SOL     OW80698   7.960   5.006   6.747
25284SOL    HW180699   8.016   4.936   6.714
25284SOL    HW280700   8.020   5.076   6.773
25285SOL     OW80701   9.028   5.261   6.289
25285SOL    HW180702   8.973   5.244   6.365
25285SOL    HW280703   8.966   5.269   6.216
25286SOL     OW80704   8.629   4.438   6.254
25286SOL    HW180705   8.720   4.452   6.278
25286SOL    HW280706   8.600   4.522   6.218
25287SOL     OW80707   9.144   4.325   5.834
25287SOL    HW180708   9.161   4.323   5.740
25287SOL    HW280709   9.128   4.233   5.857
25288SOL     OW80710   8.259   4.593   7.372
25288SOL    HW180711   8.339   4.600   7.424
25288SOL    HW280712   8.288   4.604   7.281
25289SOL     OW80713   8.119   4.948   7.460
25289SOL    HW180714   8.201   4.994   7.476
25289SOL    HW280715   8.092   4.976   7.372
25290SOL     OW80716   7.768   5.153   6.619
25290SOL    HW180717   7.826   5.083   6.647
25290SOL    HW280718   7.822   5.209   6.563
25291SOL     OW80719   8.928   5.226   6.991
25291SOL    HW180720   8.969   5.309   6.967
25291SOL    HW280721   8.946   5.216   7.084
25292SOL     OW80722   7.891   4.172   7.170
25292SOL    HW180723   7.974   4.125   7.159
25292SOL    HW280724   7.830   4.125   7.114
25293SOL     OW80725   9.032   4.191   6.344
25293SOL    HW180726   9.014   4.233   6.260
25293SOL    HW280727   9.122   4.161   6.336
25294SOL     OW80728   7.673   5.412   6.059
25294SOL    HW180729   7.698   5.480   6.121
25294SOL    HW280730   7.752   5.398   6.005
25295SOL     OW80731   8.612   5.066   7.233
25295SOL    HW180732   8.701   5.030   7.232
25295SOL    HW280733   8.557   4.994   7.261
25296SOL     OW80734   7.605   5.150   6.133
25296SOL    HW180735   7.617   5.241   6.106
25296SOL    HW280736   7.693   5.121   6.159
25297SOL     OW80737   7.715   4.839   6.490
25297SOL    HW180738   7.748   4.782   6.560
25297SOL    HW280739   7.793   4.861   6.439
25298SOL     OW80740   7.964   5.534   6.966
25298SOL    HW180741   7.901   5.512   7.035
25298SOL    HW280742   8.030   5.587   7.009
25299SOL     OW80743   8.004   4.738   5.687
25299SOL    HW180744   8.025   4.813   5.631
25299SOL    HW280745   8.078   4.679   5.676
25300SOL     OW80746   9.038   3.823   7.063
25300SOL    HW180747   9.130   3.801   7.079
25300SOL    HW280748   9.009   3.866   7.143
25301SOL     OW80749   7.533   4.302   6.247
25301SOL    HW180750   7.598   4.315   6.178
25301SOL    HW280751   7.532   4.385   6.295
25302SOL     OW80752   9.266   5.452   5.938
25302SOL    HW180753   9.346   5.424   5.982
25302SOL    HW280754   9.288   5.537   5.900
25303SOL     OW80755   7.480   5.318   5.691
25303SOL    HW180756   7.464   5.224   5.698
25303SOL    HW280757   7.464   5.352   5.778
25304SOL     OW80758   9.127   4.562   6.229
25304SOL    HW180759   9.202   4.566   6.289
25304SOL    HW280760   9.165   4.579   6.143
25305SOL     OW80761   9.086   4.848   6.023
25305SOL    HW180762   9.175   4.839   5.989
25305SOL    HW280763   9.097   4.897   6.105
25306SOL     OW80764   7.617   4.479   7.160
25306SOL    HW180765   7.686   4.513   7.103
25306SOL    HW280766   7.595   4.551   7.218
25307SOL     OW80767   8.093   5.117   6.318
25307SOL    HW180768   8.121   5.050   6.381
25307SOL    HW280769   8.045   5.068   6.252
25308SOL     OW80770   8.751   4.946   6.974
25308SOL    HW180771   8.772   4.856   6.948
25308SOL    HW280772   8.806   4.962   7.051
25309SOL     OW80773   7.600   4.656   6.839
25309SOL    HW180774   7.676   4.617   6.883
25309SOL    HW280775   7.598   4.614   6.753
25310SOL     OW80776   9.010   4.729   5.782
25310SOL    HW180777   8.955   4.659   5.817
25310SOL    HW280778   9.053   4.766   5.859
25311SOL     OW80779   8.570   5.558   7.224
25311SOL    HW180780   8.597   5.626   7.163
25311SOL    HW280781   8.608   5.477   7.188
25312SOL     OW80782   7.764   3.978   7.430
25312SOL    HW180783   7.827   4.040   7.467
25312SOL    HW280784   7.678   4.013   7.454
25313SOL     OW80785   8.886   5.162   6.515
25313SOL    HW180786   8.839   5.170   6.598
25313SOL    HW280787   8.887   5.069   6.496
25314SOL     OW80788   9.114   5.514   6.164
25314SOL    HW180789   9.165   5.474   6.093
25314SOL    HW280790   9.095   5.442   6.224
25315SOL     OW80791   7.908   4.449   5.874
25315SOL    HW180792   7.939   4.399   5.799
25315SOL    HW280793   7.985   4.455   5.931
25316SOL     OW80794   8.701   4.068   6.561
25316SOL    HW180795   8.689   4.122   6.639
25316SOL    HW280796   8.775   4.012   6.582
25317SOL     OW80797   8.998   5.403   5.860
25317SOL    HW180798   9.090   5.415   5.883
25317SOL    HW280799   8.999   5.366   5.772
25318SOL     OW80800   8.192   4.334   7.060
25318SOL    HW180801   8.288   4.337   7.060
25318SOL    HW280802   8.171   4.263   6.999
25319SOL     OW80803   8.374   4.652   7.125
25319SOL    HW180804   8.418   4.571   7.098
25319SOL    HW280805   8.333   4.684   7.044
25320SOL     OW80806   8.366   4.155   6.847
25320SOL    HW180807   8.428   4.123   6.913
25320SOL    HW280808   8.412   4.146   6.764
25321SOL     OW80809   8.421   4.351   6.022
25321SOL    HW180810   8.456   4.361   6.111
25321SOL    HW280811   8.337   4.307   6.034
25322SOL     OW80812   7.516   4.566   6.366
25322SOL    HW180813   7.559   4.551   6.450
25322SOL    HW280814   7.570   4.632   6.323
25323SOL     OW80815   7.504   5.623   7.142
25323SOL    HW180816   7.507   5.578   7.227
25323SOL    HW280817   7.551   5.705   7.157
25324SOL     OW80818   8.813   4.823   6.018
25324SOL    HW180819   8.908   4.837   6.016
25324SOL    HW280820   8.799   4.745   5.964
25325SOL     OW80821   7.951   3.948   6.512
25325SOL    HW180822   7.980   3.933   6.602
25325SOL    HW280823   8.009   4.016   6.478
25326SOL     OW80824   8.443   5.144   6.070
25326SOL    HW180825   8.527   5.150   6.025
25326SOL    HW280826   8.453   5.070   6.131
25327SOL     OW80827   7.812   5.537   6.506
25327SOL    HW180828   7.867   5.459   6.494
25327SOL    HW280829   7.874   5.610   6.510
25328SOL     OW80830   9.291   4.806   6.486
25328SOL    HW180831   9.319   4.721   6.452
25328SOL    HW280832   9.219   4.786   6.547
25329SOL     OW80833   8.670   5.315   7.115
25329SOL    HW180834   8.658   5.227   7.150
25329SOL    HW280835   8.748   5.307   7.059
25330SOL     OW80836   7.793   4.701   5.861
25330SOL    HW180837   7.861   4.729   5.801
25330SOL    HW280838   7.809   4.607   5.873
25331SOL     OW80839   8.880   4.533   6.342
25331SOL    HW180840   8.902   4.470   6.410
25331SOL    HW280841   8.962   4.552   6.298
25332SOL     OW80842   7.879   5.015   7.279
25332SOL    HW180843   7.839   4.982   7.199
25332SOL    HW280844   7.807   5.019   7.342
25333SOL     OW80845   8.542   5.428   5.883
25333SOL    HW180846   8.619   5.484   5.885
25333SOL    HW280847   8.544   5.387   5.796
25334SOL     OW80848   7.686   3.955   7.143
25334SOL    HW180849   7.728   3.968   7.229
25334SOL    HW280850   7.623   3.885   7.158
25335SOL     OW80851   9.060   5.135   5.700
25335SOL    HW180852   9.030   5.209   5.647
25335SOL    HW280853   9.005   5.062   5.671
25336SOL     OW80854   7.917   5.412   5.926
25336SOL    HW180855   7.967   5.482   5.968
25336SOL    HW280856   7.975   5.380   5.857
25337SOL     OW80857   8.858   3.837   6.042
25337SOL    HW180858   8.861   3.810   5.950
25337SOL    HW280859   8.934   3.793   6.081
25338SOL     OW80860   7.749   5.532   6.791
25338SOL    HW180861   7.830   5.519   6.839
25338SOL    HW280862   7.773   5.522   6.699
25339SOL     OW80863   8.392   5.434   6.474
25339SOL    HW180864   8.481   5.400   6.479
25339SOL    HW280865   8.349   5.381   6.406
25340SOL     OW80866   7.727   4.353   6.059
25340SOL    HW180867   7.772   4.391   5.983
25340SOL    HW280868   7.794   4.297   6.099
25341SOL     OW80869   8.941   3.956   7.290
25341SOL    HW180870   8.933   3.965   7.385
25341SOL    HW280871   8.853   3.976   7.257
25342SOL     OW80872   8.023   3.758   5.668
25342SOL    HW180873   8.066   3.766   5.753
25342SOL    HW280874   8.075   3.693   5.621
25343SOL     OW80875   8.257   4.001   7.355
25343SOL    HW180876   8.345   3.975   7.329
25343SOL    HW280877   8.268   4.039   7.442
25344SOL     OW80878   8.310   5.237   6.843
25344SOL    HW180879   8.294   5.217   6.751
25344SOL    HW280880   8.396   5.199   6.861
25345SOL     OW80881   8.274   5.136   6.594
25345SOL    HW180882   8.357   5.129   6.546
25345SOL    HW280883   8.224   5.060   6.566
25346SOL     OW80884   8.307   4.208   6.513
25346SOL    HW180885   8.278   4.191   6.424
25346SOL    HW280886   8.353   4.128   6.539
25347SOL     OW80887   7.879   3.901   6.059
25347SOL    HW180888   7.819   3.900   5.984
25347SOL    HW280889   7.964   3.879   6.022
25348SOL     OW80890   8.894   4.926   5.632
25348SOL    HW180891   8.935   4.854   5.680
25348SOL    HW280892   8.807   4.936   5.670
25349SOL     OW80893   7.759   3.738   5.750
25349SOL    HW180894   7.834   3.749   5.692
25349SOL    HW280895   7.790   3.679   5.818
25350SOL     OW80896   8.468   4.391   7.078
25350SOL    HW180897   8.475   4.397   7.173
25350SOL    HW280898   8.536   4.329   7.053
25351SOL     OW80899   8.644   5.331   6.393
25351SOL    HW180900   8.674   5.386   6.321
25351SOL    HW280901   8.709   5.344   6.462
25352SOL     OW80902   7.944   4.848   6.343
25352SOL    HW180903   8.013   4.885   6.398
25352SOL    HW280904   7.963   4.755   6.340
25353SOL     OW80905   8.713   5.525   6.202
25353SOL    HW180906   8.772   5.589   6.162
25353SOL    HW280907   8.642   5.578   6.240
25354SOL     OW80908   8.481   4.229   5.608
25354SOL    HW180909   8.394   4.222   5.649
25354SOL    HW280910   8.541   4.241   5.682
25355SOL     OW80911   7.590   4.281   6.961
25355SOL    HW180912   7.682   4.275   6.935
25355SOL    HW280913   7.589   4.349   7.028
25356SOL     OW80914   7.981   3.905   6.781
25356SOL    HW180915   8.023   3.832   6.827
25356SOL    HW280916   7.895   3.913   6.822
25357SOL     OW80917   8.923   4.897   6.436
25357SOL    HW180918   8.855   4.857   6.382
25357SOL    HW280919   8.993   4.917   6.374
25358SOL     OW80920   8.926   4.348   6.546
25358SOL    HW180921   8.963   4.283   6.487
25358SOL    HW280922   8.982   4.346   6.623
25359SOL     OW80923   9.257   4.528   5.986
25359SOL    HW180924   9.331   4.487   6.030
25359SOL    HW280925   9.228   4.464   5.921
25360SOL     OW80926   7.979   5.202   5.731
25360SOL    HW180927   7.888   5.181   5.750
25360SOL    HW280928   8.006   5.135   5.667
25361SOL     OW80929   9.116   4.993   6.257
25361SOL    HW180930   9.211   4.982   6.262
25361SOL    HW280931   9.103   5.088   6.260
25362SOL     OW80932   8.815   4.265   5.637
25362SOL    HW180933   8.751   4.269   5.708
25362SOL    HW280934   8.868   4.187   5.656
25363SOL     OW80935   9.162   4.962   7.137
25363SOL    HW180936   9.246   4.924   7.112
25363SOL    HW280937   9.181   5.054   7.153
25364SOL     OW80938   8.511   5.055   6.908
25364SOL    HW180939   8.443   5.019   6.965
25364SOL    HW280940   8.593   5.021   6.944
25365SOL     OW80941   9.015   5.358   7.235
25365SOL    HW180942   9.022   5.423   7.166
25365SOL    HW280943   9.099   5.313   7.235
25366SOL     OW80944   8.560   4.922   6.669
25366SOL    HW180945   8.529   4.972   6.745
25366SOL    HW280946   8.546   4.980   6.594
25367SOL     OW80947   9.062   4.794   6.660
25367SOL    HW180948   9.059   4.867   6.722
25367SOL    HW280949   9.007   4.821   6.587
25368SOL     OW80950   8.313   3.831   6.923
25368SOL    HW180951   8.345   3.794   6.841
25368SOL    HW280952   8.388   3.877   6.960
25369SOL     OW80953   8.448   4.853   7.303
25369SOL    HW180954   8.363   4.861   7.345
25369SOL    HW280955   8.436   4.784   7.237
25370SOL     OW80956   8.192   4.766   6.028
25370SOL    HW180957   8.134   4.696   6.060
25370SOL    HW280958   8.265   4.720   5.987
25371SOL     OW80959   7.807   4.525   6.964
25371SOL    HW180960   7.893   4.555   6.994
25371SOL    HW280961   7.825   4.444   6.915
25372SOL     OW80962   8.696   4.161   6.820
25372SOL    HW180963   8.682   4.193   6.909
25372SOL    HW280964   8.790   4.146   6.815
25373SOL     OW80965   7.559   5.370   6.929
25373SOL    HW180966   7.595   5.443   6.880
25373SOL    HW280967   7.629   5.304   6.931
25374SOL     OW80968   7.755   4.915   6.027
25374SOL    HW180969   7.838   4.959   6.042
25374SOL    HW280970   7.778   4.839   5.974
25375SOL     OW80971   8.029   4.230   6.494
25375SOL    HW180972   8.048   4.295   6.426
25375SOL    HW280973   8.115   4.209   6.532
25376SOL     OW80974   8.700   5.084   5.992
25376SOL    HW180975   8.758   5.156   6.017
25376SOL    HW280976   8.750   5.005   6.015
25377SOL     OW80977   8.767   5.190   6.766
25377SOL    HW180978   8.828   5.200   6.840
25377SOL    HW280979   8.707   5.120   6.794
25378SOL     OW80980   9.025   4.333   6.097
25378SOL    HW180981   9.062   4.405   6.148
25378SOL    HW280982   9.059   4.346   6.008
25379SOL     OW80983   7.766   5.194   6.890
25379SOL    HW180984   7.764   5.182   6.795
25379SOL    HW280985   7.857   5.220   6.909
25380SOL     OW80986   7.963   4.438   7.279
25380SOL    HW180987   7.992   4.492   7.205
25380SOL    HW280988   7.951   4.351   7.242
25381SOL     OW80989   8.510   3.906   7.337
25381SOL    HW180990   8.575   3.962   7.295
25381SOL    HW280991   8.523   3.820   7.297
25382SOL     OW80992   7.868   3.725   7.468
25382SOL    HW180993   7.866   3.684   7.381
25382SOL    HW280994   7.838   3.815   7.453
25383SOL     OW80995   7.889   4.669   6.627
25383SOL    HW180996   7.929   4.637   6.546
25383SOL    HW280997   7.957   4.722   6.669
25384SOL     OW80998   8.713   4.531   6.573
25384SOL    HW180999   8.754   4.570   6.496
25384SOL    HW281000   8.767   4.454   6.592
25385SOL     OW81001   8.627   4.266   5.849
25385SOL    HW181002   8.664   4.196   5.903
25385SOL    HW281003   8.556   4.302   5.902
25386SOL     OW81004   7.712   3.899   6.872
25386SOL    HW181005   7.705   3.923   6.964
25386SOL    HW281006   7.715   3.803   6.873
25387SOL     OW81007   7.503   5.059   6.836
25387SOL    HW181008   7.500   4.985   6.897
25387SOL    HW281009   7.587   5.102   6.855
25388SOL     OW81010   9.187   4.674   7.408
25388SOL    HW181011   9.147   4.674   7.321
25388SOL    HW281012   9.115   4.694   7.468
25389SOL     OW81013   7.724   3.776   6.255
25389SOL    HW181014   7.784   3.824   6.197
25389SOL    HW281015   7.781   3.729   6.315
25390SOL     OW81016   9.050   4.089   5.947
25390SOL    HW181017   9.100   4.021   5.992
25390SOL    HW281018   9.024   4.150   6.016
25391SOL     OW81019   8.426   5.269   7.293
25391SOL    HW181020   8.401   5.332   7.225
25391SOL    HW281021   8.489   5.211   7.249
25392SOL     OW81022   9.245   5.220   7.169
25392SOL    HW181023   9.281   5.258   7.088
25392SOL    HW281024   9.314   5.233   7.234
25393SOL     OW81025   8.925   4.014   5.709
25393SOL    HW181026   8.881   3.932   5.733
25393SOL    HW281027   8.975   4.038   5.787
25394SOL     OW81028   8.751   4.537   5.603
25394SOL    HW181029   8.779   4.445   5.602
25394SOL    HW281030   8.776   4.570   5.517
25395SOL     OW81031   8.510   5.097   6.454
25395SOL    HW181032   8.510   5.040   6.377
25395SOL    HW281033   8.565   5.171   6.430
25396SOL     OW81034   7.666   4.518   6.596
25396SOL    HW181035   7.746   4.568   6.611
25396SOL    HW281036   7.696   4.428   6.583
25397SOL     OW81037   7.767   4.257   6.557
25397SOL    HW181038   7.733   4.203   6.485
25397SOL    HW281039   7.861   4.261   6.542
25398SOL     OW81040   8.552   3.961   6.980
25398SOL    HW181041   8.591   3.995   7.060
25398SOL    HW281042   8.611   3.991   6.910
25399SOL     OW81043   7.460   5.045   5.831
25399SOL    HW181044   7.370   5.068   5.808
25399SOL    HW281045   7.495   5.002   5.753
25400SOL     OW81046   7.540   5.479   6.516
25400SOL    HW181047   7.524   5.388   6.492
25400SOL    HW281048   7.635   5.489   6.513
25401SOL     OW81049   7.956   5.301   6.477
25401SOL    HW181050   8.026   5.355   6.512
25401SOL    HW281051   8.000   5.237   6.420
25402SOL     OW81052   8.455   4.503   6.809
25402SOL    HW181053   8.527   4.566   6.815
25402SOL    HW281054   8.460   4.453   6.890
25403SOL     OW81055   7.518   4.236   6.696
25403SOL    HW181056   7.599   4.233   6.645
25403SOL    HW281057   7.547   4.256   6.785
25404SOL     OW81058   7.681   4.272   7.328
25404SOL    HW181059   7.758   4.234   7.285
25404SOL    HW281060   7.654   4.342   7.269
25405SOL     OW81061   8.834   4.698   7.269
25405SOL    HW181062   8.844   4.793   7.276
25405SOL    HW281063   8.830   4.682   7.174
25406SOL     OW81064   9.097   4.338   6.765
25406SOL    HW181065   9.099   4.267   6.829
25406SOL    HW281066   9.185   4.338   6.727
25407SOL     OW81067   7.650   5.267   7.288
25407SOL    HW181068   7.630   5.340   7.347
25407SOL    HW281069   7.674   5.195   7.346
25408SOL     OW81070   8.092   4.160   6.839
25408SOL    HW181071   8.067   4.069   6.822
25408SOL    HW281072   8.187   4.161   6.831
25409SOL     OW81073   8.307   5.417   7.065
25409SOL    HW181074   8.316   5.362   6.988
25409SOL    HW281075   8.344   5.501   7.039
25410SOL     OW81076   7.516   4.846   7.016
25410SOL    HW181077   7.601   4.873   7.051
25410SOL    HW281078   7.537   4.778   6.952
25411SOL     OW81079   8.661   4.693   6.785
25411SOL    HW181080   8.688   4.640   6.710
25411SOL    HW281081   8.631   4.775   6.748
25412SOL     OW81082   8.791   4.580   5.876
25412SOL    HW181083   8.783   4.491   5.910
25412SOL    HW281084   8.772   4.572   5.782
25413SOL     OW81085   9.184   5.451   6.709
25413SOL    HW181086   9.267   5.479   6.671
25413SOL    HW281087   9.176   5.359   6.687
25414SOL     OW81088   8.701   5.445   6.666
25414SOL    HW181089   8.785   5.485   6.643
25414SOL    HW281090   8.724   5.362   6.708
25415SOL     OW81091   7.488   4.970   6.569
25415SOL    HW181092   7.495   4.990   6.662
25415SOL    HW281093   7.572   4.929   6.547
25416SOL     OW81094   8.113   5.407   7.262
25416SOL    HW181095   8.070   5.492   7.274
25416SOL    HW281096   8.181   5.424   7.196
25417SOL     OW81097   9.192   3.901   6.090
25417SOL    HW181098   9.256   3.882   6.022
25417SOL    HW281099   9.159   3.816   6.117
25418SOL     OW81100   8.849   5.306   6.079
25418SOL    HW181101   8.901   5.339   6.005
25418SOL    HW281102   8.802   5.383   6.110
25419SOL     OW81103   7.556   5.511   7.402
25419SOL    HW181104   7.508   5.446   7.453
25419SOL    HW281105   7.616   5.552   7.464
25420SOL     OW81106   8.724   4.754   6.266
25420SOL    HW181107   8.779   4.680   6.290
25420SOL    HW281108   8.755   4.779   6.179
25421SOL     OW81109   8.249   5.018   7.011
25421SOL    HW181110   8.209   5.048   7.093
25421SOL    HW281111   8.251   5.095   6.955
25422SOL     OW81112   8.201   5.347   5.804
25422SOL    HW181113   8.225   5.391   5.722
25422SOL    HW281114   8.135   5.283   5.778
25423SOL     OW81115   9.041   5.470   6.955
25423SOL    HW181116   9.100   5.470   6.879
25423SOL    HW281117   9.019   5.562   6.968
25424SOL     OW81118   9.297   3.887   6.586
25424SOL    HW181119   9.325   3.800   6.559
25424SOL    HW281120   9.220   3.905   6.533
25425SOL     OW81121   7.760   4.065   6.345
25425SOL    HW181122   7.797   4.114   6.272
25425SOL    HW281123   7.836   4.026   6.388
25426SOL     OW81124   8.543   5.318   5.637
25426SOL    HW181125   8.529   5.231   5.597
25426SOL    HW281126   8.589   5.368   5.570
25427SOL     OW81127   8.214   4.760   6.920
25427SOL    HW181128   8.184   4.771   6.830
25427SOL    HW281129   8.228   4.849   6.952
25428SOL     OW81130   8.397   4.620   5.924
25428SOL    HW181131   8.451   4.635   5.847
25428SOL    HW281132   8.407   4.526   5.943
25429SOL     OW81133   8.930   5.361   5.575
25429SOL    HW181134   8.845   5.385   5.538
25429SOL    HW281135   8.988   5.354   5.500
25430SOL     OW81136   7.778   4.950   7.026
25430SOL    HW181137   7.780   5.037   6.987
25430SOL    HW281138   7.845   4.900   6.979
25431SOL     OW81139   9.059   5.015   6.829
25431SOL    HW181140   9.150   5.020   6.859
25431SOL    HW281141   9.009   5.066   6.892
25432SOL     OW81142   8.491   4.923   6.236
25432SOL    HW181143   8.423   4.858   6.219
25432SOL    HW281144   8.571   4.871   6.247
25433SOL     OW81145   8.441   3.978   6.577
25433SOL    HW181146   8.534   3.999   6.565
25433SOL    HW281147   8.442   3.893   6.620
25434SOL     OW81148   7.947   5.115   6.030
25434SOL    HW181149   8.033   5.086   6.001
25434SOL    HW281150   7.940   5.205   5.999
25435SOL     OW81151   9.184   4.128   6.925
25435SOL    HW181152   9.268   4.171   6.940
25435SOL    HW281153   9.203   4.035   6.936
25436SOL     OW81154   7.729   5.138   5.826
25436SOL    HW181155   7.636   5.113   5.825
25436SOL    HW281156   7.767   5.087   5.898
25437SOL     OW81157   7.562   4.676   7.350
25437SOL    HW181158   7.477   4.694   7.389
25437SOL    HW281159   7.626   4.697   7.418
25438SOL     OW81160   8.108   3.996   7.122
25438SOL    HW181161   8.171   3.964   7.057
25438SOL    HW281162   8.157   3.996   7.205
25439SOL     OW81163   7.503   4.099   5.668
25439SOL    HW181164   7.449   4.079   5.592
25439SOL    HW281165   7.568   4.162   5.636
25440SOL     OW81166   8.828   4.652   6.999
25440SOL    HW181167   8.765   4.650   6.927
25440SOL    HW281168   8.911   4.626   6.959
25441SOL     OW81169   7.547   3.889   5.843
25441SOL    HW181170   7.530   3.962   5.782
25441SOL    HW281171   7.621   3.843   5.804
25442SOL     OW81172   8.646   4.949   5.754
25442SOL    HW181173   8.612   4.866   5.786
25442SOL    HW281174   8.661   5.001   5.833
25443SOL     OW81175   8.060   4.571   7.053
25443SOL    HW181176   8.113   4.639   7.011
25443SOL    HW281177   8.115   4.493   7.050
25444SOL     OW81178   8.946   5.539   6.588
25444SOL    HW181179   8.969   5.624   6.549
25444SOL    HW281180   9.027   5.511   6.631
25445SOL     OW81181   8.183   4.291   7.454
25445SOL    HW181182   8.272   4.294   7.490
25445SOL    HW281183   8.193   4.252   7.367
25446SOL     OW81184   8.891   4.976   7.216
25446SOL    HW181185   8.892   4.984   7.311
25446SOL    HW281186   8.983   4.970   7.191
25447SOL     OW81187   7.762   5.480   7.144
25447SOL    HW181188   7.676   5.510   7.116
25447SOL    HW281189   7.745   5.394   7.183
25448SOL     OW81190   9.067   4.599   6.869
25448SOL    HW181191   9.081   4.511   6.835
25448SOL    HW281192   9.076   4.656   6.793
25449SOL     OW81193   8.712   4.078   6.035
25449SOL    HW181194   8.771   4.003   6.028
25449SOL    HW281195   8.721   4.108   6.125
25450SOL     OW81196   8.090   4.478   6.103
25450SOL    HW181197   8.129   4.391   6.094
25450SOL    HW281198   8.086   4.493   6.198
25451SOL     OW81199   9.145   4.159   7.277
25451SOL    HW181200   9.221   4.125   7.228
25451SOL    HW281201   9.083   4.086   7.279
25452SOL     OW81202   9.114   4.681   7.139
25452SOL    HW181203   9.120   4.776   7.127
25452SOL    HW281204   9.110   4.646   7.050
25453SOL     OW81205   8.248   5.076   5.635
25453SOL    HW181206   8.259   5.085   5.729
25453SOL    HW281207   8.337   5.087   5.599
25454SOL     OW81208   8.125   5.504   6.546
25454SOL    HW181209   8.116   5.597   6.525
25454SOL    HW281210   8.219   5.486   6.534
25455SOL     OW81211   8.532   4.679   5.690
25455SOL    HW181212   8.512   4.738   5.617
25455SOL    HW281213   8.606   4.626   5.659
25456SOL     OW81214   9.283   5.291   6.409
25456SOL    HW181215   9.204   5.288   6.355
25456SOL    HW281216   9.261   5.240   6.486
25457SOL     OW81217   7.678   5.054   7.465
25457SOL    HW181218   7.589   5.028   7.490
25457SOL    HW281219   7.726   5.059   7.548
25458SOL     OW81220   7.596   4.830   6.242
25458SOL    HW181221   7.627   4.841   6.332
25458SOL    HW281222   7.676   4.829   6.189
25459SOL     OW81223   8.118   5.130   7.224
25459SOL    HW181224   8.027   5.105   7.239
25459SOL    HW281225   8.119   5.225   7.236
25460SOL     OW81226   9.356   3.871   6.856
25460SOL    HW181227   9.441   3.915   6.854
25460SOL    HW281228   9.323   3.877   6.767
25461SOL     OW81229   7.924   4.169   6.148
25461SOL    HW181230   7.925   4.081   6.110
25461SOL    HW281231   8.016   4.196   6.149
25462SOL     OW81232   9.138   5.192   6.626
25462SOL    HW181233   9.053   5.191   6.582
25462SOL    HW281234   9.130   5.126   6.694
25463SOL     OW81235   7.841   4.279   6.836
25463SOL    HW181236   7.929   4.245   6.849
25463SOL    HW281237   7.824   4.268   6.743
25464SOL     OW81238   8.293   5.297   6.249
25464SOL    HW181239   8.356   5.234   6.214
25464SOL    HW281240   8.219   5.243   6.278
25465SOL     OW81241   8.905   3.948   6.736
25465SOL    HW181242   8.909   3.855   6.713
25465SOL    HW281243   8.950   3.954   6.820
25466SOL     OW81244   8.451   3.720   6.684
25466SOL    HW181245   8.426   3.668   6.608
25466SOL    HW281246   8.539   3.690   6.706
25467SOL     OW81247   8.203   5.035   5.956
25467SOL    HW181248   8.196   4.941   5.973
25467SOL    HW281249   8.289   5.059   5.991
25468SOL     OW81250   8.033   5.278   6.879
25468SOL    HW181251   8.022   5.369   6.907
25468SOL    HW281252   8.128   5.270   6.865
25469SOL     OW81253   8.818   3.759   5.779
25469SOL    HW181254   8.865   3.696   5.724
25469SOL    HW281255   8.742   3.711   5.811
25470SOL     OW81256   8.637   4.158   6.297
25470SOL    HW181257   8.636   4.254   6.295
25470SOL    HW281258   8.672   4.136   6.384
25471SOL     OW81259   9.037   3.931   6.485
25471SOL    HW181260   9.005   3.969   6.566
25471SOL    HW281261   9.036   4.003   6.422
25472SOL     OW81262   7.521   4.746   5.928
25472SOL    HW181263   7.606   4.737   5.884
25472SOL    HW281264   7.491   4.657   5.942
25473SOL     OW81265   7.715   4.396   7.574
25473SOL    HW181266   7.643   4.349   7.616
25473SOL    HW281267   7.714   4.365   7.483
25474SOL     OW81268   7.662   4.021   8.459
25474SOL    HW181269   7.699   3.978   8.536
25474SOL    HW281270   7.580   3.975   8.442
25475SOL     OW81271   7.464   4.148   8.066
25475SOL    HW181272   7.397   4.095   8.111
25475SOL    HW281273   7.534   4.086   8.046
25476SOL     OW81274   8.041   5.037   8.645
25476SOL    HW181275   7.956   5.040   8.600
25476SOL    HW281276   8.057   5.128   8.670
25477SOL     OW81277   9.018   5.226   8.100
25477SOL    HW181278   9.084   5.296   8.097
25477SOL    HW281279   8.958   5.247   8.028
25478SOL     OW81280   8.553   4.433   8.137
25478SOL    HW181281   8.605   4.512   8.119
25478SOL    HW281282   8.513   4.451   8.222
25479SOL     OW81283   9.206   4.317   7.672
25479SOL    HW181284   9.230   4.308   7.580
25479SOL    HW281285   9.167   4.233   7.695
25480SOL     OW81286   8.180   4.863   8.484
25480SOL    HW181287   8.135   4.911   8.554
25480SOL    HW281288   8.227   4.931   8.435
25481SOL     OW81289   8.333   4.452   9.280
25481SOL    HW181290   8.334   4.517   9.349
25481SOL    HW281291   8.363   4.499   9.202
25482SOL     OW81292   8.126   4.713   8.088
25482SOL    HW181293   8.201   4.709   8.148
25482SOL    HW281294   8.068   4.778   8.128
25483SOL     OW81295   8.175   4.848   9.302
25483SOL    HW181296   8.228   4.919   9.339
25483SOL    HW281297   8.104   4.893   9.256
25484SOL     OW81298   7.808   5.123   8.510
25484SOL    HW181299   7.722   5.112   8.470
25484SOL    HW281300   7.855   5.180   8.450
25485SOL     OW81301   8.902   5.250   8.841
25485SOL    HW181302   8.953   5.331   8.850
25485SOL    HW281303   8.832   5.258   8.905
25486SOL     OW81304   7.853   4.103   9.005
25486SOL    HW181305   7.940   4.077   8.975
25486SOL    HW281306   7.844   4.064   9.092
25487SOL     OW81307   9.042   4.171   8.179
25487SOL    HW181308   9.028   4.214   8.095
25487SOL    HW281309   9.000   4.229   8.243
25488SOL     OW81310   7.701   5.442   7.892
25488SOL    HW181311   7.713   5.511   7.958
25488SOL    HW281312   7.780   5.445   7.839
25489SOL     OW81313   8.578   5.050   9.150
25489SOL    HW181314   8.625   5.058   9.233
25489SOL    HW281315   8.542   4.962   9.150
25490SOL     OW81316   7.665   5.181   7.974
25490SOL    HW181317   7.677   5.275   7.958
25490SOL    HW281318   7.637   5.176   8.065
25491SOL     OW81319   7.716   4.832   8.356
25491SOL    HW181320   7.690   4.740   8.348
25491SOL    HW281321   7.790   4.831   8.417
25492SOL     OW81322   8.078   5.520   8.887
25492SOL    HW181323   8.003   5.507   8.945
25492SOL    HW281324   8.147   5.553   8.945
25493SOL     OW81325   8.015   4.718   7.573
25493SOL    HW181326   8.048   4.788   7.517
25493SOL    HW281327   8.050   4.738   7.659
25494SOL     OW81328   9.104   3.801   8.851
25494SOL    HW181329   9.160   3.855   8.795
25494SOL    HW281330   9.058   3.863   8.907
25495SOL     OW81331   7.575   4.398   8.002
25495SOL    HW181332   7.537   4.313   8.024
25495SOL    HW281333   7.559   4.452   8.080
25496SOL     OW81334   7.465   5.303   7.557
25496SOL    HW181335   7.465   5.209   7.577
25496SOL    HW281336   7.456   5.345   7.642
25497SOL     OW81337   9.128   4.560   8.055
25497SOL    HW181338   9.212   4.557   8.100
25497SOL    HW281339   9.135   4.636   7.997
25498SOL     OW81340   9.049   4.822   7.898
25498SOL    HW181341   9.136   4.801   7.864
25498SOL    HW281342   9.066   4.875   7.977
25499SOL     OW81343   7.634   4.469   9.023
25499SOL    HW181344   7.729   4.470   9.037
25499SOL    HW281345   7.604   4.550   9.064
25500SOL     OW81346   8.098   5.120   8.145
25500SOL    HW181347   8.041   5.043   8.154
25500SOL    HW281348   8.128   5.117   8.054
25501SOL     OW81349   8.722   4.939   8.852
25501SOL    HW181350   8.771   4.884   8.791
25501SOL    HW281351   8.775   4.940   8.932
25502SOL     OW81352   8.226   3.758   7.847
25502SOL    HW181353   8.298   3.820   7.860
25502SOL    HW281354   8.162   3.780   7.915
25503SOL     OW81355   7.585   4.620   8.755
25503SOL    HW181356   7.673   4.614   8.717
25503SOL    HW281357   7.575   4.539   8.805
25504SOL     OW81358   8.974   4.727   7.611
25504SOL    HW181359   8.903   4.670   7.643
25504SOL    HW281360   9.022   4.752   7.690
25505SOL     OW81361   7.799   4.016   9.264
25505SOL    HW181362   7.839   4.072   9.331
25505SOL    HW281363   7.711   3.998   9.296
25506SOL     OW81364   8.864   5.153   8.421
25506SOL    HW181365   8.823   5.177   8.504
25506SOL    HW281366   8.957   5.169   8.434
25507SOL     OW81367   9.175   5.443   7.980
25507SOL    HW181368   9.145   5.432   7.890
25507SOL    HW281369   9.268   5.423   7.977
25508SOL     OW81370   8.057   4.440   7.699
25508SOL    HW181371   8.129   4.489   7.737
25508SOL    HW281372   7.993   4.433   7.771
25509SOL     OW81373   8.713   4.100   8.391
25509SOL    HW181374   8.630   4.053   8.397
25509SOL    HW281375   8.774   4.050   8.445
25510SOL     OW81376   9.060   5.438   7.723
25510SOL    HW181377   9.141   5.481   7.699
25510SOL    HW281378   9.014   5.424   7.640
25511SOL     OW81379   8.179   4.323   8.866
25511SOL    HW181380   8.174   4.301   8.959
25511SOL    HW281381   8.138   4.248   8.822
25512SOL     OW81382   8.862   4.205   9.129
25512SOL    HW181383   8.873   4.250   9.213
25512SOL    HW281384   8.915   4.126   9.137
25513SOL     OW81385   8.408   4.591   9.053
25513SOL    HW181386   8.460   4.529   9.002
25513SOL    HW281387   8.359   4.642   8.989
25514SOL     OW81388   8.468   4.115   8.647
25514SOL    HW181389   8.414   4.063   8.707
25514SOL    HW281390   8.460   4.070   8.563
25515SOL     OW81391   8.440   4.411   7.885
25515SOL    HW181392   8.468   4.419   7.976
25515SOL    HW281393   8.507   4.359   7.843
25516SOL     OW81394   7.489   4.560   8.220
25516SOL    HW181395   7.569   4.552   8.271
25516SOL    HW281396   7.444   4.636   8.257
25517SOL     OW81397   7.557   5.578   9.029
25517SOL    HW181398   7.552   5.559   9.123
25517SOL    HW281399   7.565   5.673   9.024
25518SOL     OW81400   8.418   4.018   7.590
25518SOL    HW181401   8.444   4.109   7.575
25518SOL    HW281402   8.473   3.968   7.531
25519SOL     OW81403   9.137   4.281   9.285
25519SOL    HW181404   9.113   4.364   9.244
25519SOL    HW281405   9.187   4.235   9.217
25520SOL     OW81406   8.777   4.852   7.926
25520SOL    HW181407   8.870   4.840   7.908
25520SOL    HW281408   8.755   4.936   7.886
25521SOL     OW81409   7.976   3.894   8.386
25521SOL    HW181410   7.991   3.892   8.481
25521SOL    HW281411   7.994   3.984   8.360
25522SOL     OW81412   8.449   5.197   7.923
25522SOL    HW181413   8.478   5.265   7.863
25522SOL    HW281414   8.424   5.244   8.003
25523SOL     OW81415   7.796   5.522   8.334
25523SOL    HW181416   7.845   5.440   8.334
25523SOL    HW281417   7.859   5.587   8.366
25524SOL     OW81418   9.200   4.720   8.348
25524SOL    HW181419   9.242   4.790   8.299
25524SOL    HW281420   9.154   4.765   8.419
25525SOL     OW81421   8.659   5.259   8.974
25525SOL    HW181422   8.643   5.182   9.028
25525SOL    HW281423   8.574   5.303   8.968
25526SOL     OW81424   7.737   4.671   7.632
25526SOL    HW181425   7.827   4.694   7.610
25526SOL    HW281426   7.732   4.576   7.619
25527SOL     OW81427   8.917   4.559   8.234
25527SOL    HW181428   8.925   4.474   8.278
25527SOL    HW281429   8.994   4.563   8.177
25528SOL     OW81430   7.959   4.997   9.204
25528SOL    HW181431   7.887   5.003   9.141
25528SOL    HW281432   7.929   5.046   9.280
25529SOL     OW81433   8.535   5.397   7.747
25529SOL    HW181434   8.603   5.455   7.782
25529SOL    HW281435   8.567   5.372   7.660
25530SOL     OW81436   7.561   3.918   8.903
25530SOL    HW181437   7.600   3.979   8.966
25530SOL    HW281438   7.543   3.839   8.954
25531SOL     OW81439   9.075   5.109   7.523
25531SOL    HW181440   9.071   5.200   7.553
25531SOL    HW281441   9.160   5.102   7.479
25532SOL     OW81442   7.963   5.482   7.751
25532SOL    HW181443   7.982   5.534   7.830
25532SOL    HW281444   8.007   5.529   7.680
25533SOL     OW81445   8.848   3.799   7.900
25533SOL    HW181446   8.837   3.780   7.807
25533SOL    HW281447   8.931   3.759   7.924
25534SOL     OW81448   7.781   5.515   8.709
25534SOL    HW181449   7.799   5.497   8.802
25534SOL    HW281450   7.860   5.487   8.664
25535SOL     OW81451   8.417   5.444   8.369
25535SOL    HW181452   8.505   5.428   8.403
25535SOL    HW281453   8.409   5.381   8.296
25536SOL     OW81454   7.852   4.394   7.896
25536SOL    HW181455   7.871   4.303   7.917
25536SOL    HW281456   7.760   4.406   7.919
25537SOL     OW81457   8.999   3.963   9.185
25537SOL    HW181458   8.989   3.992   9.276
25537SOL    HW281459   8.986   3.869   9.189
25538SOL     OW81460   8.234   3.763   7.509
25538SOL    HW181461   8.325   3.747   7.536
25538SOL    HW281462   8.240   3.835   7.447
25539SOL     OW81463   8.164   4.032   9.222
25539SOL    HW181464   8.252   3.996   9.213
25539SOL    HW281465   8.121   3.976   9.286
25540SOL     OW81466   8.302   5.220   8.610
25540SOL    HW181467   8.300   5.185   8.521
25540SOL    HW281468   8.376   5.176   8.652
25541SOL     OW81469   8.783   4.321   8.888
25541SOL    HW181470   8.823   4.291   8.970
25541SOL    HW281471   8.824   4.406   8.871
25542SOL     OW81472   8.296   5.084   8.351
25542SOL    HW181473   8.378   5.093   8.304
25542SOL    HW281474   8.228   5.102   8.286
25543SOL     OW81475   8.374   4.190   8.311
25543SOL    HW181476   8.348   4.178   8.220
25543SOL    HW281477   8.410   4.106   8.337
25544SOL     OW81478   7.989   3.825   7.973
25544SOL    HW181479   7.910   3.826   8.027
25544SOL    HW281480   7.969   3.886   7.901
25545SOL     OW81481   8.859   4.949   7.489
25545SOL    HW181482   8.886   4.865   7.527
25545SOL    HW281483   8.928   5.010   7.512
25546SOL     OW81484   8.414   3.963   7.861
25546SOL    HW181485   8.418   3.970   7.766
25546SOL    HW281486   8.505   3.974   7.889
25547SOL     OW81487   8.519   4.398   8.886
25547SOL    HW181488   8.480   4.313   8.910
25547SOL    HW281489   8.613   4.381   8.885
25548SOL     OW81490   8.683   5.234   8.216
25548SOL    HW181491   8.675   5.308   8.156
25548SOL    HW281492   8.755   5.258   8.274
25549SOL     OW81493   7.928   4.900   8.157
25549SOL    HW181494   7.867   4.878   8.229
25549SOL    HW281495   7.879   4.879   8.078
25550SOL     OW81496   8.672   5.491   8.071
25550SOL    HW181497   8.727   5.550   8.020
25550SOL    HW281498   8.617   5.549   8.124
25551SOL     OW81499   8.437   4.289   7.561
25551SOL    HW181500   8.476   4.327   7.482
25551SOL    HW281501   8.504   4.300   7.629
25552SOL     OW81502   7.554   4.311   8.818
25552SOL    HW181503   7.643   4.281   8.797
25552SOL    HW281504   7.564   4.358   8.901
25553SOL     OW81505   8.000   3.888   8.660
25553SOL    HW181506   8.034   3.823   8.722
25553SOL    HW281507   7.907   3.893   8.679
25554SOL     OW81508   8.287   4.135   8.050
25554SOL    HW181509   8.270   4.201   7.983
25554SOL    HW281510   8.331   4.064   8.003
25555SOL     OW81511   8.436   3.744   8.221
25555SOL    HW181512   8.399   3.660   8.195
25555SOL    HW281513   8.524   3.744   8.183
25556SOL     OW81514   8.891   4.844   8.265
25556SOL    HW181515   8.913   4.752   8.272
25556SOL    HW281516   8.968   4.884   8.223
25557SOL     OW81517   8.904   4.317   8.384
25557SOL    HW181518   8.841   4.247   8.397
25557SOL    HW281519   8.964   4.310   8.458
25558SOL     OW81520   9.408   4.490   7.760
25558SOL    HW181521   9.427   4.452   7.846
25558SOL    HW281522   9.327   4.448   7.733
25559SOL     OW81523   7.966   5.103   7.660
25559SOL    HW181524   7.886   5.061   7.691
25559SOL    HW281525   8.000   5.044   7.593
25560SOL     OW81526   9.098   4.964   8.132
25560SOL    HW181527   9.192   4.955   8.150
25560SOL    HW281528   9.084   5.058   8.126
25561SOL     OW81529   8.877   4.293   7.586
25561SOL    HW181530   8.784   4.310   7.570
25561SOL    HW281531   8.885   4.198   7.582
25562SOL     OW81532   8.008   3.927   7.700
25562SOL    HW181533   8.090   3.969   7.727
25562SOL    HW281534   7.955   3.999   7.665
25563SOL     OW81535   9.174   4.979   8.985
25563SOL    HW181536   9.260   4.938   8.973
25563SOL    HW281537   9.194   5.067   9.017
25564SOL     OW81538   8.502   5.051   8.735
25564SOL    HW181539   8.423   5.032   8.786
25564SOL    HW281540   8.573   5.016   8.788
25565SOL     OW81541   9.076   5.403   9.104
25565SOL    HW181542   9.063   5.433   9.014
25565SOL    HW281543   9.145   5.336   9.097
25566SOL     OW81544   8.615   4.956   8.494
25566SOL    HW181545   8.576   4.996   8.572
25566SOL    HW281546   8.544   4.905   8.456
25567SOL     OW81547   9.056   4.822   8.564
25567SOL    HW181548   9.073   4.899   8.619
25567SOL    HW281549   8.963   4.806   8.574
25568SOL     OW81550   8.348   3.925   8.813
25568SOL    HW181551   8.351   3.849   8.755
25568SOL    HW281552   8.427   3.917   8.867
25569SOL     OW81553   8.455   4.801   9.231
25569SOL    HW181554   8.362   4.813   9.250
25569SOL    HW281555   8.458   4.726   9.173
25570SOL     OW81556   8.140   4.792   7.821
25570SOL    HW181557   8.131   4.768   7.913
25570SOL    HW281558   8.209   4.734   7.787
25571SOL     OW81559   7.851   4.541   8.703
25571SOL    HW181560   7.921   4.563   8.765
25571SOL    HW281561   7.838   4.447   8.715
25572SOL     OW81562   8.728   4.093   8.743
25572SOL    HW181563   8.754   4.173   8.788
25572SOL    HW281564   8.642   4.115   8.705
25573SOL     OW81565   7.554   5.309   8.793
25573SOL    HW181566   7.559   5.404   8.786
25573SOL    HW281567   7.646   5.281   8.798
25574SOL     OW81568   7.774   4.831   7.934
25574SOL    HW181569   7.760   4.896   7.866
25574SOL    HW281570   7.788   4.749   7.887
25575SOL     OW81571   7.973   4.264   8.312
25575SOL    HW181572   7.990   4.327   8.243
25575SOL    HW281573   8.047   4.274   8.372
25576SOL     OW81574   8.698   5.101   7.832
25576SOL    HW181575   8.759   5.174   7.849
25576SOL    HW281576   8.619   5.124   7.880
25577SOL     OW81577   8.715   5.226   8.645
25577SOL    HW181578   8.783   5.235   8.711
25577SOL    HW281579   8.644   5.179   8.689
25578SOL     OW81580   9.042   4.324   7.937
25578SOL    HW181581   9.070   4.402   7.985
25578SOL    HW281582   9.051   4.348   7.845
25579SOL     OW81583   7.806   5.197   8.779
25579SOL    HW181584   7.801   5.168   8.688
25579SOL    HW281585   7.892   5.238   8.787
25580SOL     OW81586   7.907   4.466   9.085
25580SOL    HW181587   7.956   4.510   9.016
25580SOL    HW281588   7.967   4.400   9.119
25581SOL     OW81589   9.064   4.520   9.170
25581SOL    HW181590   8.974   4.551   9.159
25581SOL    HW281591   9.112   4.558   9.096
25582SOL     OW81592   8.406   3.917   9.198
25582SOL    HW181593   8.482   3.973   9.181
25582SOL    HW281594   8.432   3.830   9.167
25583SOL     OW81595   7.945   3.775   9.217
25583SOL    HW181596   7.902   3.720   9.152
25583SOL    HW281597   7.886   3.850   9.228
25584SOL     OW81598   7.929   4.711   8.487
25584SOL    HW181599   8.020   4.741   8.489
25584SOL    HW281600   7.920   4.658   8.566
25585SOL     OW81601   8.751   4.561   8.459
25585SOL    HW181602   8.791   4.580   8.375
25585SOL    HW281603   8.774   4.469   8.477
25586SOL     OW81604   8.638   4.263   7.762
25586SOL    HW181605   8.649   4.177   7.802
25586SOL    HW281606   8.726   4.302   7.762
25587SOL     OW81607   7.723   3.880   8.685
25587SOL    HW181608   7.678   3.904   8.766
25587SOL    HW281609   7.720   3.785   8.682
25588SOL     OW81610   7.477   5.058   8.702
25588SOL    HW181611   7.502   4.993   8.766
25588SOL    HW281612   7.509   5.141   8.738
25589SOL     OW81613   8.189   4.290   8.484
25589SOL    HW181614   8.254   4.253   8.424
25589SOL    HW281615   8.239   4.351   8.538
25590SOL     OW81616   9.196   4.707   9.332
25590SOL    HW181617   9.150   4.637   9.286
25590SOL    HW281618   9.137   4.734   9.402
25591SOL     OW81619   7.740   3.807   8.096
25591SOL    HW181620   7.726   3.896   8.127
25591SOL    HW281621   7.749   3.755   8.176
25592SOL     OW81622   9.081   4.089   7.785
25592SOL    HW181623   9.131   4.022   7.832
25592SOL    HW281624   9.056   4.152   7.853
25593SOL     OW81625   8.420   4.462   8.382
25593SOL    HW181626   8.425   4.464   8.478
25593SOL    HW281627   8.412   4.369   8.361
25594SOL     OW81628   8.392   5.248   9.204
25594SOL    HW181629   8.379   5.297   9.123
25594SOL    HW281630   8.455   5.179   9.179
25595SOL     OW81631   9.287   5.232   9.032
25595SOL    HW181632   9.321   5.261   8.948
25595SOL    HW281633   9.362   5.235   9.091
25596SOL     OW81634   7.771   4.670   9.219
25596SOL    HW181635   7.828   4.717   9.280
25596SOL    HW281636   7.826   4.600   9.185
25597SOL     OW81637   8.910   4.016   7.574
25597SOL    HW181638   8.870   3.932   7.596
25597SOL    HW281639   8.976   4.030   7.642
25598SOL     OW81640   7.723   4.555   8.363
25598SOL    HW181641   7.807   4.588   8.395
25598SOL    HW281642   7.726   4.462   8.382
25599SOL     OW81643   7.721   4.282   8.411
25599SOL    HW181644   7.701   4.194   8.441
25599SOL    HW281645   7.812   4.277   8.381
25600SOL     OW81646   8.603   4.108   9.131
25600SOL    HW181647   8.562   4.152   9.206
25600SOL    HW281648   8.691   4.144   9.128
25601SOL     OW81649   8.605   3.925   8.928
25601SOL    HW181650   8.606   3.989   8.999
25601SOL    HW281651   8.659   3.964   8.860
25602SOL     OW81652   7.456   5.018   7.631
25602SOL    HW181653   7.364   5.040   7.616
25602SOL    HW281654   7.454   4.927   7.662
25603SOL     OW81655   7.523   5.484   8.374
25603SOL    HW181656   7.513   5.405   8.321
25603SOL    HW281657   7.616   5.503   8.372
25604SOL     OW81658   7.945   5.277   8.326
25604SOL    HW181659   8.014   5.338   8.351
25604SOL    HW281660   7.984   5.222   8.258
25605SOL     OW81661   8.345   4.441   8.669
25605SOL    HW181662   8.427   4.440   8.717
25605SOL    HW281663   8.281   4.406   8.731
25606SOL     OW81664   7.490   4.358   8.552
25606SOL    HW181665   7.565   4.340   8.495
25606SOL    HW281666   7.523   4.342   8.641
25607SOL     OW81667   7.645   4.274   9.223
25607SOL    HW181668   7.720   4.223   9.190
25607SOL    HW281669   7.625   4.336   9.153
25608SOL     OW81670   8.824   4.638   9.096
25608SOL    HW181671   8.845   4.731   9.096
25608SOL    HW281672   8.828   4.613   9.003
25609SOL     OW81673   8.185   4.158   7.741
25609SOL    HW181674   8.275   4.130   7.720
25609SOL    HW281675   8.184   4.252   7.720
25610SOL     OW81676   9.084   4.306   8.593
25610SOL    HW181677   9.088   4.260   8.677
25610SOL    HW281678   9.175   4.315   8.566
25611SOL     OW81679   7.656   5.296   9.161
25611SOL    HW181680   7.645   5.371   9.219
25611SOL    HW281681   7.666   5.222   9.220
25612SOL     OW81682   8.039   4.165   8.674
25612SOL    HW181683   8.048   4.070   8.673
25612SOL    HW281684   8.095   4.195   8.602
25613SOL     OW81685   8.404   5.383   8.953
25613SOL    HW181686   8.366   5.361   8.867
25613SOL    HW281687   8.357   5.462   8.980
25614SOL     OW81688   7.911   4.168   7.584
25614SOL    HW181689   8.004   4.192   7.583
25614SOL    HW281690   7.865   4.248   7.608
25615SOL     OW81691   7.555   4.861   8.892
25615SOL    HW181692   7.557   4.818   8.977
25615SOL    HW281693   7.574   4.790   8.829
25616SOL     OW81694   8.785   4.773   8.624
25616SOL    HW181695   8.769   4.695   8.570
25616SOL    HW281696   8.737   4.843   8.581
25617SOL     OW81697   8.762   4.579   7.703
25617SOL    HW181698   8.688   4.596   7.761
25617SOL    HW281699   8.726   4.529   7.630
25618SOL     OW81700   9.179   5.456   8.570
25618SOL    HW181701   9.251   5.470   8.509
25618SOL    HW281702   9.159   5.362   8.562
25619SOL     OW81703   8.671   5.442   8.481
25619SOL    HW181704   8.758   5.476   8.459
25619SOL    HW281705   8.688   5.368   8.539
25620SOL     OW81706   7.543   5.046   8.431
25620SOL    HW181707   7.519   5.038   8.523
25620SOL    HW281708   7.586   4.963   8.410
25621SOL     OW81709   8.080   5.391   9.193
25621SOL    HW181710   8.001   5.442   9.211
25621SOL    HW281711   8.152   5.454   9.199
25622SOL     OW81712   9.230   3.910   7.935
25622SOL    HW181713   9.306   3.881   7.886
25622SOL    HW281714   9.185   3.829   7.960
25623SOL     OW81715   8.855   5.325   7.890
25623SOL    HW181716   8.925   5.363   7.836
25623SOL    HW281717   8.821   5.399   7.939
25624SOL     OW81718   7.593   5.526   9.306
25624SOL    HW181719   7.528   5.530   9.376
25624SOL    HW281720   7.672   5.564   9.344
25625SOL     OW81721   8.696   4.662   8.100
25625SOL    HW181722   8.779   4.629   8.136
25625SOL    HW281723   8.723   4.723   8.031
25626SOL     OW81724   8.245   5.003   8.841
25626SOL    HW181725   8.216   5.056   8.916
25626SOL    HW281726   8.175   5.011   8.777
25627SOL     OW81727   8.161   5.306   7.515
25627SOL    HW181728   8.144   5.349   7.431
25627SOL    HW281729   8.230   5.243   7.496
25628SOL     OW81730   9.054   5.483   8.838
25628SOL    HW181731   9.097   5.479   8.752
25628SOL    HW281732   9.039   5.576   8.853
25629SOL     OW81733   9.273   3.874   8.431
25629SOL    HW181734   9.306   3.786   8.410
25629SOL    HW281735   9.195   3.883   8.377
25630SOL     OW81736   7.714   4.064   8.192
25630SOL    HW181737   7.680   4.153   8.197
25630SOL    HW281738   7.719   4.035   8.283
25631SOL     OW81739   8.629   5.318   7.495
25631SOL    HW181740   8.626   5.223   7.511
25631SOL    HW281741   8.570   5.331   7.421
25632SOL     OW81742   8.280   4.729   8.849
25632SOL    HW181743   8.325   4.715   8.766
25632SOL    HW281744   8.273   4.824   8.856
25633SOL     OW81745   8.298   4.585   7.728
25633SOL    HW181746   8.360   4.608   7.659
25633SOL    HW281747   8.347   4.528   7.787
25634SOL     OW81748   8.905   5.395   7.493
25634SOL    HW181749   8.818   5.357   7.483
25634SOL    HW281750   8.946   5.385   7.407
25635SOL     OW81751   7.768   5.023   9.000
25635SOL    HW181752   7.790   5.090   8.935
25635SOL    HW281753   7.701   4.969   8.958
25636SOL     OW81754   9.044   5.035   8.743
25636SOL    HW181755   9.096   5.009   8.819
25636SOL    HW281756   8.987   5.105   8.775
25637SOL     OW81757   8.551   4.858   8.231
25637SOL    HW181758   8.465   4.816   8.240
25637SOL    HW281759   8.604   4.795   8.182
25638SOL     OW81760   8.469   3.939   8.418
25638SOL    HW181761   8.455   3.885   8.340
25638SOL    HW281762   8.467   3.877   8.491
25639SOL     OW81763   9.189   4.166   8.825
25639SOL    HW181764   9.267   4.222   8.828
25639SOL    HW281765   9.217   4.090   8.774
25640SOL     OW81766   7.709   5.034   7.751
25640SOL    HW181767   7.619   5.027   7.721
25640SOL    HW281768   7.704   5.089   7.830
25641SOL     OW81769   7.520   4.714   9.121
25641SOL    HW181770   7.453   4.711   9.190
25641SOL    HW281771   7.603   4.712   9.169
25642SOL     OW81772   8.116   4.030   8.946
25642SOL    HW181773   8.189   3.989   8.899
25642SOL    HW281774   8.138   4.019   9.039
25643SOL     OW81775   7.521   4.105   7.475
25643SOL    HW181776   7.431   4.116   7.446
25643SOL    HW281777   7.571   4.168   7.422
25644SOL     OW81778   8.861   4.582   8.826
25644SOL    HW181779   8.821   4.646   8.767
25644SOL    HW281780   8.952   4.576   8.797
25645SOL     OW81781   7.489   3.845   7.780
25645SOL    HW181782   7.520   3.911   7.717
25645SOL    HW281783   7.568   3.799   7.807
25646SOL     OW81784   8.612   5.051   7.574
25646SOL    HW181785   8.686   5.006   7.532
25646SOL    HW281786   8.638   5.060   7.665
25647SOL     OW81787   8.059   4.567   8.878
25647SOL    HW181788   8.129   4.633   8.878
25647SOL    HW281789   8.106   4.484   8.872
25648SOL     OW81790   8.930   5.528   8.439
25648SOL    HW181791   8.956   5.602   8.384
25648SOL    HW281792   9.011   5.499   8.481
25649SOL     OW81793   8.132   4.301   9.147
25649SOL    HW181794   8.198   4.347   9.199
25649SOL    HW281795   8.138   4.210   9.176
25650SOL     OW81796   8.908   4.905   9.068
25650SOL    HW181797   8.900   4.927   9.161
25650SOL    HW281798   8.998   4.928   9.045
25651SOL     OW81799   7.797   5.461   8.978
25651SOL    HW181800   7.712   5.503   8.986
25651SOL    HW281801   7.789   5.381   9.029
25652SOL     OW81802   9.105   4.580   8.696
25652SOL    HW181803   9.116   4.500   8.644
25652SOL    HW281804   9.111   4.651   8.632
25653SOL     OW81805   8.680   4.026   7.901
25653SOL    HW181806   8.745   3.957   7.903
25653SOL    HW281807   8.692   4.073   7.984
25654SOL     OW81808   8.006   4.459   8.121
25654SOL    HW181809   8.055   4.541   8.108
25654SOL    HW281810   7.958   4.448   8.039
25655SOL     OW81811   9.228   4.082   9.089
25655SOL    HW181812   9.205   4.119   9.004
25655SOL    HW281813   9.149   4.037   9.118
25656SOL     OW81814   9.156   4.658   8.956
25656SOL    HW181815   9.171   4.753   8.952
25656SOL    HW281816   9.157   4.630   8.865
25657SOL     OW81817   8.349   5.099   7.491
25657SOL    HW181818   8.432   5.070   7.529
25657SOL    HW281819   8.374   5.151   7.415
25658SOL     OW81820   8.135   5.465   8.361
25658SOL    HW181821   8.105   5.555   8.375
25658SOL    HW281822   8.229   5.467   8.379
25659SOL     OW81823   8.318   4.708   8.292
25659SOL    HW181824   8.353   4.623   8.318
25659SOL    HW281825   8.271   4.740   8.370
25660SOL     OW81826   8.482   4.639   7.525
25660SOL    HW181827   8.523   4.716   7.486
25660SOL    HW281828   8.543   4.567   7.506
25661SOL     OW81829   9.392   5.233   8.230
25661SOL    HW181830   9.434   5.189   8.156
25661SOL    HW281831   9.385   5.165   8.297
25662SOL     OW81832   7.642   5.096   9.351
25662SOL    HW181833   7.625   5.002   9.363
25662SOL    HW281834   7.725   5.111   9.394
25663SOL     OW81835   7.585   4.909   8.123
25663SOL    HW181836   7.630   4.886   8.204
25663SOL    HW281837   7.645   4.882   8.053
25664SOL     OW81838   8.121   5.155   9.037
25664SOL    HW181839   8.072   5.095   9.093
25664SOL    HW281840   8.120   5.239   9.084
25665SOL     OW81841   9.279   3.943   8.696
25665SOL    HW181842   9.374   3.942   8.708
25665SOL    HW281843   9.267   3.921   8.603
25666SOL     OW81844   7.902   4.142   7.994
25666SOL    HW181845   7.994   4.127   8.017
25666SOL    HW281846   7.853   4.110   8.070
25667SOL     OW81847   9.132   5.183   8.521
25667SOL    HW181848   9.210   5.147   8.480
25667SOL    HW281849   9.118   5.128   8.599
25668SOL     OW81850   7.820   4.271   8.788
25668SOL    HW181851   7.827   4.224   8.871
25668SOL    HW281852   7.893   4.238   8.736
25669SOL     OW81853   8.313   5.337   8.127
25669SOL    HW181854   8.296   5.425   8.094
25669SOL    HW281855   8.227   5.301   8.145
25670SOL     OW81856   8.883   3.963   8.556
25670SOL    HW181857   8.900   3.873   8.585
25670SOL    HW281858   8.843   4.005   8.632
25671SOL     OW81859   8.465   3.734   8.610
25671SOL    HW181860   8.430   3.678   8.679
25671SOL    HW281861   8.536   3.684   8.571
25672SOL     OW81862   8.190   5.100   7.876
25672SOL    HW181863   8.184   5.010   7.845
25672SOL    HW281864   8.284   5.117   7.886
25673SOL     OW81865   8.061   5.307   8.715
25673SOL    HW181866   8.072   5.380   8.776
25673SOL    HW281867   8.147   5.295   8.676
25674SOL     OW81868   8.799   3.767   7.625
25674SOL    HW181869   8.844   3.702   7.570
25674SOL    HW281870   8.706   3.742   7.621
25675SOL     OW81871   8.681   4.181   8.125
25675SOL    HW181872   8.639   4.267   8.129
25675SOL    HW281873   8.699   4.159   8.217
25676SOL     OW81874   9.022   3.922   8.317
25676SOL    HW181875   8.980   3.958   8.395
25676SOL    HW281876   9.029   3.996   8.257
25677SOL     OW81877   7.492   4.768   7.742
25677SOL    HW181878   7.578   4.749   7.704
25677SOL    HW281879   7.458   4.682   7.767
25678SOL     OW81880   8.265   5.419   7.810
25678SOL    HW181881   8.354   5.416   7.773
25678SOL    HW281882   8.269   5.490   7.875
25679SOL     OW81883   7.665   4.388   9.475
25679SOL    HW181884   7.580   4.366   9.514
25679SOL    HW281885   7.657   4.362   9.384
25680SOL     OW81886   9.214   4.303   9.547
25680SOL    HW181887   9.186   4.298   9.455
25680SOL    HW281888   9.195   4.216   9.582
25681SOL     OW81889   7.691   5.446   9.761
25681SOL    HW181890   7.698   5.517   9.824
25681SOL    HW281891   7.778   5.438   9.723
25682SOL     OW81892   7.584   5.201   9.838
25682SOL    HW181893   7.630   5.280   9.810
25682SOL    HW281894   7.540   5.226   9.919
25683SOL     OW81895   8.033   4.687   9.486
25683SOL    HW181896   8.079   4.729   9.413
25683SOL    HW281897   8.074   4.724   9.565
25684SOL     OW81898   7.576   4.452   9.830
25684SOL    HW181899   7.565   4.362   9.860
25684SOL    HW281900   7.546   4.506   9.903
25685SOL     OW81901   9.264   5.515   9.650
25685SOL    HW181902   9.338   5.489   9.704
25685SOL    HW281903   9.284   5.605   9.623
25686SOL     OW81904   7.424   5.256   9.414
25686SOL    HW181905   7.502   5.205   9.392
25686SOL    HW281906   7.456   5.322   9.475
25687SOL     OW81907   9.235   4.600   9.959
25687SOL    HW181908   9.255   4.571   9.870
25687SOL    HW281909   9.180   4.677   9.947
25688SOL     OW81910   9.128   4.837   9.775
25688SOL    HW181911   9.215   4.836   9.734
25688SOL    HW281912   9.131   4.910   9.837
25689SOL     OW81913   8.072   5.059   9.965
25689SOL    HW181914   8.017   4.982   9.975
25689SOL    HW281915   8.039   5.101   9.885
25690SOL     OW81916   8.230   3.735   9.699
25690SOL    HW181917   8.289   3.804   9.728
25690SOL    HW281918   8.152   3.746   9.754
25691SOL     OW81919   8.989   4.764   9.534
25691SOL    HW181920   8.935   4.690   9.561
25691SOL    HW281921   9.032   4.794   9.615
25692SOL     OW81922   8.036   4.413   9.566
25692SOL    HW181923   8.039   4.503   9.533
25692SOL    HW281924   7.978   4.418   9.641
25693SOL     OW81925   8.978   5.469   9.605
25693SOL    HW181926   9.069   5.483   9.628
25693SOL    HW281927   8.980   5.431   9.517
25694SOL     OW81928   8.511   4.425   9.774
25694SOL    HW181929   8.513   4.382   9.860
25694SOL    HW281930   8.428   4.398   9.735
25695SOL     OW81931   7.462   4.578   0.051
25695SOL    HW181932   7.511   4.514   0.102
25695SOL    HW281933   7.466   4.658   0.102
25696SOL     OW81934   8.325   4.072   9.507
25696SOL    HW181935   8.384   4.107   9.440
25696SOL    HW281936   8.287   3.994   9.466
25697SOL     OW81937   8.713   4.827   9.786
25697SOL    HW181938   8.769   4.845   9.862
25697SOL    HW281939   8.698   4.912   9.746
25698SOL     OW81940   8.418   5.185   9.789
25698SOL    HW181941   8.393   5.269   9.750
25698SOL    HW281942   8.389   5.191   9.880
25699SOL     OW81943   7.825   5.565   0.177
25699SOL    HW181944   7.846   5.496   0.240
25699SOL    HW281945   7.909   5.609   0.162
25700SOL     OW81946   7.760   4.654   9.555
25700SOL    HW181947   7.852   4.659   9.529
25700SOL    HW281948   7.734   4.564   9.535
25701SOL     OW81949   9.083   5.116   9.409
25701SOL    HW181950   9.048   5.204   9.394
25701SOL    HW281951   9.014   5.057   9.381
25702SOL     OW81952   7.942   5.459   9.639
25702SOL    HW181953   7.987   5.532   9.682
25702SOL    HW281954   8.002   5.432   9.569
25703SOL     OW81955   7.854   4.409   9.780
25703SOL    HW181956   7.859   4.318   9.807
25703SOL    HW281957   7.761   4.432   9.787
25704SOL     OW81958   8.112   3.841   9.432
25704SOL    HW181959   8.155   3.772   9.483
25704SOL    HW281960   8.062   3.793   9.366
25705SOL     OW81961   8.006   3.822   9.835
25705SOL    HW181962   7.922   3.800   9.876
25705SOL    HW281963   7.982   3.878   9.761
25706SOL     OW81964   8.876   4.940   9.344
25706SOL    HW181965   8.908   4.877   9.407
25706SOL    HW281966   8.791   4.967   9.378
25707SOL     OW81967   7.770   3.775   9.536
25707SOL    HW181968   7.831   3.846   9.557
25707SOL    HW281969   7.814   3.696   9.568
25708SOL     OW81970   8.357   3.980   9.766
25708SOL    HW181971   8.354   4.012   9.676
25708SOL    HW281972   8.447   3.996   9.794
25709SOL     OW81973   7.885   4.865   0.029
25709SOL    HW181974   7.811   4.855   0.089
25709SOL    HW281975   7.851   4.836   9.944
25710SOL     OW81976   8.730   5.544   9.889
25710SOL    HW181977   8.726   5.614   9.824
25710SOL    HW281978   8.756   5.588   9.970
25711SOL     OW81979   8.492   4.230   9.349
25711SOL    HW181980   8.444   4.312   9.332
25711SOL    HW281981   8.542   4.249   9.428
25712SOL     OW81982   8.150   4.156   9.853
25712SOL    HW181983   8.201   4.224   9.809
25712SOL    HW281984   8.208   4.080   9.856
25713SOL     OW81985   9.301   4.516   9.704
25713SOL    HW181986   9.364   4.458   9.745
25713SOL    HW281987   9.261   4.464   9.634
25714SOL     OW81988   7.898   5.135   9.446
25714SOL    HW181989   7.877   5.112   9.536
25714SOL    HW281990   7.972   5.195   9.453
25715SOL     OW81991   8.831   4.290   9.403
25715SOL    HW181992   8.763   4.271   9.468
25715SOL    HW281993   8.896   4.221   9.414
25716SOL     OW81994   7.946   3.978   9.606
25716SOL    HW181995   8.018   3.938   9.557
25716SOL    HW281996   7.926   4.059   9.558
25717SOL     OW81997   8.169   4.778   9.714
25717SOL    HW181998   8.111   4.732   9.774
25717SOL    HW281999   8.256   4.745   9.735
25718SOL     OW82000   7.754   4.812   9.793
25718SOL    HW182001   7.760   4.892   9.740
25718SOL    HW282002   7.762   4.741   9.730
25719SOL     OW82003   8.661   5.090   9.696
25719SOL    HW182004   8.722   5.160   9.718
25719SOL    HW282005   8.577   5.120   9.730
25720SOL     OW82006   9.021   4.392   9.736
25720SOL    HW182007   9.064   4.393   9.822
25720SOL    HW282008   9.085   4.352   9.678
25721SOL     OW82009   8.632   4.246   9.593
25721SOL    HW182010   8.641   4.171   9.651
25721SOL    HW282011   8.600   4.316   9.649
25722SOL     OW82012   7.762   3.819   9.976
25722SOL    HW182013   7.797   3.907   9.986
25722SOL    HW282014   7.725   3.797   0.062
25723SOL     OW82015   9.118   4.070   9.662
25723SOL    HW182016   9.197   4.018   9.647
25723SOL    HW282017   9.085   4.038   9.746
25724SOL     OW82018   8.948   4.038   9.445
25724SOL    HW182019   8.888   3.970   9.476
25724SOL    HW282020   9.011   4.050   9.516
25725SOL     OW82021   8.708   4.528   9.326
25725SOL    HW182022   8.752   4.443   9.329
25725SOL    HW282023   8.740   4.569   9.246
25726SOL     OW82024   7.320   5.005   9.569
25726SOL    HW182025   7.289   4.963   9.649
25726SOL    HW282026   7.395   4.952   9.542
25727SOL     OW82027   8.285   4.312   9.652
25727SOL    HW182028   8.298   4.230   9.603
25727SOL    HW282029   8.203   4.347   9.617
25728SOL     OW82030   7.880   4.204   9.462
25728SOL    HW182031   7.954   4.262   9.479
25728SOL    HW282032   7.803   4.259   9.478
25729SOL     OW82033   8.834   4.533   9.605
25729SOL    HW182034   8.899   4.482   9.654
25729SOL    HW282035   8.829   4.490   9.520
25730SOL     OW82036   9.129   3.794   9.797
25730SOL    HW182037   9.186   3.754   9.731
25730SOL    HW282038   9.181   3.793   9.877
25731SOL     OW82039   8.814   5.314   9.774
25731SOL    HW182040   8.876   5.346   9.709
25731SOL    HW282041   8.779   5.393   9.815
25732SOL     OW82042   8.120   5.322   9.471
25732SOL    HW182043   8.129   5.343   9.378
25732SOL    HW282044   8.202   5.351   9.510
25733SOL     OW82045   8.682   5.386   9.356
25733SOL    HW182046   8.636   5.303   9.367
25733SOL    HW282047   8.627   5.450   9.403
25734SOL     OW82048   8.959   5.361   9.352
25734SOL    HW182049   8.864   5.369   9.341
25734SOL    HW282050   8.995   5.378   9.265
25735SOL     OW82051   7.991   5.187   9.733
25735SOL    HW182052   8.068   5.157   9.686
25735SOL    HW282053   7.981   5.278   9.706
25736SOL     OW82054   7.689   5.034   9.643
25736SOL    HW182055   7.614   4.980   9.620
25736SOL    HW282056   7.656   5.095   9.708
25737SOL     OW82057   7.526   4.045   9.334
25737SOL    HW182058   7.456   4.027   9.271
25737SOL    HW282059   7.551   4.135   9.317
25738SOL     OW82060   7.521   3.883   9.569
25738SOL    HW182061   7.507   3.938   9.492
25738SOL    HW282062   7.611   3.852   9.561
25739SOL     OW82063   8.622   5.048   9.425
25739SOL    HW182064   8.528   5.035   9.419
25739SOL    HW282065   8.640   5.062   9.518
25740SOL     OW82066   8.617   4.080   9.826
25740SOL    HW182067   8.674   4.023   9.879
25740SOL    HW282068   8.586   4.146   9.888
25741SOL     OW82069   8.023   4.611   9.875
25741SOL    HW182070   8.040   4.592   9.967
25741SOL    HW282071   7.964   4.541   9.846
25742SOL     OW82072   8.333   5.056   9.394
25742SOL    HW182073   8.285   5.082   9.473
25742SOL    HW282074   8.336   5.135   9.341
25743SOL     OW82075   8.567   4.663   9.520
25743SOL    HW182076   8.536   4.739   9.470
25743SOL    HW282077   8.618   4.612   9.457
25744SOL     OW82078   7.501   4.891   9.890
25744SOL    HW182079   7.526   4.979   9.915
25744SOL    HW282080   7.584   4.849   9.864
25745SOL     OW82081   7.876   4.134   9.839
25745SOL    HW182082   7.884   4.078   9.762
25745SOL    HW282083   7.965   4.144   9.871
25746SOL     OW82084   8.215   5.052   9.646
25746SOL    HW182085   8.198   4.961   9.671
25746SOL    HW282086   8.290   5.078   9.699
25747SOL     OW82087   8.787   3.831   9.528
25747SOL    HW182088   8.804   3.745   9.489
25747SOL    HW282089   8.693   3.829   9.548
25748SOL     OW82090   7.528   4.813   9.550
25748SOL    HW182091   7.614   4.772   9.541
25748SOL    HW282092   7.471   4.743   9.580
25749SOL     OW82093   8.351   5.421   9.638
25749SOL    HW182094   8.412   5.469   9.582
25749SOL    HW282095   8.322   5.485   9.703
25750SOL     OW82096   7.661   6.152   0.086
25750SOL    HW182097   7.611   6.216   0.136
25750SOL    HW282098   7.657   6.184   9.995
25751SOL     OW82099   7.441   5.923   0.644
25751SOL    HW182100   7.463   6.010   0.611
25751SOL    HW282101   7.346   5.916   0.632
25752SOL     OW82102   7.983   6.877   1.138
25752SOL    HW182103   7.906   6.906   1.090
25752SOL    HW282104   8.011   6.954   1.186
25753SOL     OW82105   8.797   7.174   0.702
25753SOL    HW182106   8.800   7.118   0.780
25753SOL    HW282107   8.886   7.174   0.668
25754SOL     OW82108   8.563   6.323   0.717
25754SOL    HW182109   8.619   6.399   0.698
25754SOL    HW282110   8.525   6.343   0.803
25755SOL     OW82111   9.182   6.137   0.146
25755SOL    HW182112   9.203   6.212   0.202
25755SOL    HW282113   9.140   6.075   0.206
25756SOL     OW82114   8.177   6.704   1.049
25756SOL    HW182115   8.100   6.753   1.079
25756SOL    HW282116   8.242   6.771   1.028
25757SOL     OW82117   8.272   6.338   1.847
25757SOL    HW182118   8.342   6.347   1.912
25757SOL    HW282119   8.298   6.394   1.775
25758SOL     OW82120   8.149   6.525   0.641
25758SOL    HW182121   8.219   6.530   0.706
25758SOL    HW282122   8.084   6.588   0.670
25759SOL     OW82123   8.181   6.743   1.829
25759SOL    HW182124   8.226   6.823   1.855
25759SOL    HW282125   8.105   6.773   1.778
25760SOL     OW82126   7.753   7.013   1.035
25760SOL    HW182127   7.675   7.009   0.980
25760SOL    HW282128   7.813   7.071   0.987
25761SOL     OW82129   8.893   7.121   1.386
25761SOL    HW182130   8.953   7.196   1.384
25761SOL    HW282131   8.946   7.047   1.358
25762SOL     OW82132   7.886   5.949   1.455
25762SOL    HW182133   7.964   5.894   1.447
25762SOL    HW282134   7.892   5.986   1.543
25763SOL     OW82135   9.182   6.118   0.810
25763SOL    HW182136   9.109   6.171   0.779
25763SOL    HW282137   9.252   6.181   0.826
25764SOL     OW82138   7.689   7.321   0.442
25764SOL    HW182139   7.710   7.388   0.506
25764SOL    HW282140   7.774   7.293   0.407
25765SOL     OW82141   8.606   6.800   1.696
25765SOL    HW182142   8.667   6.844   1.754
25765SOL    HW282143   8.650   6.799   1.611
25766SOL     OW82144   7.563   7.089   0.520
25766SOL    HW182145   7.613   7.167   0.494
25766SOL    HW282146   7.500   7.121   0.585
25767SOL     OW82147   8.004   7.354   1.431
25767SOL    HW182148   7.911   7.356   1.455
25767SOL    HW282149   8.029   7.447   1.426
25768SOL     OW82150   8.011   6.549   0.170
25768SOL    HW182151   7.994   6.624   0.114
25768SOL    HW282152   8.075   6.580   0.234
25769SOL     OW82153   7.570   6.156   0.562
25769SOL    HW182154   7.657   6.123   0.540
25769SOL    HW282155   7.586   6.244   0.595
25770SOL     OW82156   9.292   7.285   0.307
25770SOL    HW182157   9.369   7.272   0.361
25770SOL    HW282158   9.299   7.376   0.277
25771SOL     OW82159   7.485   7.151   0.107
25771SOL    HW182160   7.477   7.066   0.150
25771SOL    HW282161   7.470   7.215   0.177
25772SOL     OW82162   9.107   6.551   0.693
25772SOL    HW182163   9.162   6.567   0.770
25772SOL    HW282164   9.146   6.604   0.624
25773SOL     OW82165   9.007   6.770   0.394
25773SOL    HW182166   9.090   6.747   0.436
25773SOL    HW282167   9.007   6.866   0.390
25774SOL     OW82168   7.643   6.331   1.625
25774SOL    HW182169   7.738   6.338   1.633
25774SOL    HW282170   7.610   6.418   1.649
25775SOL     OW82171   8.054   6.937   0.791
25775SOL    HW182172   8.016   6.850   0.778
25775SOL    HW282173   8.058   6.975   0.703
25776SOL     OW82174   8.737   6.793   1.451
25776SOL    HW182175   8.756   6.739   1.375
25776SOL    HW282176   8.818   6.792   1.503
25777SOL     OW82177   8.284   5.644   0.517
25777SOL    HW182178   8.330   5.721   0.483
25777SOL    HW282179   8.191   5.667   0.511
25778SOL     OW82180   7.623   6.549   1.271
25778SOL    HW182181   7.707   6.508   1.292
25778SOL    HW282182   7.607   6.527   1.179
25779SOL     OW82183   8.972   6.590   0.188
25779SOL    HW182184   9.059   6.557   0.164
25779SOL    HW282185   8.988   6.654   0.257
25780SOL     OW82186   8.684   7.393   1.582
25780SOL    HW182187   8.769   7.419   1.547
25780SOL    HW282188   8.690   7.298   1.591
25781SOL     OW82189   7.793   5.884   1.749
25781SOL    HW182190   7.886   5.862   1.754
25781SOL    HW282191   7.759   5.861   1.835
25782SOL     OW82192   8.798   7.014   0.925
25782SOL    HW182193   8.788   7.030   1.019
25782SOL    HW282194   8.852   6.934   0.920
25783SOL     OW82195   9.181   7.342   0.566
25783SOL    HW182196   9.206   7.313   0.479
25783SOL    HW282197   9.189   7.263   0.621
25784SOL     OW82198   8.049   6.283   0.292
25784SOL    HW182199   8.061   6.361   0.238
25784SOL    HW282200   7.969   6.299   0.341
25785SOL     OW82201   8.727   5.981   0.919
25785SOL    HW182202   8.643   5.937   0.929
25785SOL    HW282203   8.789   5.928   0.969
25786SOL     OW82204   9.046   7.143   0.281
25786SOL    HW182205   9.131   7.185   0.296
25786SOL    HW282206   8.985   7.216   0.272
25787SOL     OW82207   8.192   6.202   1.433
25787SOL    HW182208   8.179   6.167   1.521
25787SOL    HW282209   8.172   6.129   1.375
25788SOL     OW82210   8.835   6.049   1.670
25788SOL    HW182211   8.850   6.102   1.749
25788SOL    HW282212   8.881   5.967   1.687
25789SOL     OW82213   8.386   6.503   1.638
25789SOL    HW182214   8.447   6.435   1.609
25789SOL    HW282215   8.345   6.535   1.558
25790SOL     OW82216   8.414   5.992   1.198
25790SOL    HW182217   8.449   5.951   1.276
25790SOL    HW282218   8.442   5.936   1.126
25791SOL     OW82219   8.513   6.229   0.455
25791SOL    HW182220   8.502   6.259   0.545
25791SOL    HW282221   8.427   6.195   0.430
25792SOL     OW82222   7.469   7.488   1.660
25792SOL    HW182223   7.539   7.475   1.725
25792SOL    HW282224   7.507   7.548   1.596
25793SOL     OW82225   8.298   5.916   0.185
25793SOL    HW182226   8.268   5.953   0.102
25793SOL    HW282227   8.320   5.825   0.165
25794SOL     OW82228   9.123   6.179   1.861
25794SOL    HW182229   9.114   6.259   1.809
25794SOL    HW282230   9.152   6.113   1.798
25795SOL     OW82231   8.750   6.676   0.423
25795SOL    HW182232   8.841   6.703   0.414
25795SOL    HW282233   8.699   6.756   0.407
25796SOL     OW82234   7.930   5.802   0.935
25796SOL    HW182235   7.987   5.789   1.011
25796SOL    HW282236   7.974   5.870   0.884
25797SOL     OW82237   7.790   7.421   0.891
25797SOL    HW182238   7.841   7.340   0.894
25797SOL    HW282239   7.854   7.490   0.910
25798SOL     OW82240   9.277   6.583   0.909
25798SOL    HW182241   9.371   6.601   0.910
25798SOL    HW282242   9.242   6.634   0.982
25799SOL     OW82243   8.725   7.113   1.601
25799SOL    HW182244   8.784   7.085   1.671
25799SOL    HW282245   8.777   7.106   1.521
25800SOL     OW82246   7.751   6.522   0.273
25800SOL    HW182247   7.834   6.538   0.227
25800SOL    HW282248   7.770   6.449   0.332
25801SOL     OW82249   8.991   6.303   0.722
25801SOL    HW182250   8.948   6.301   0.807
25801SOL    HW282251   9.033   6.389   0.718
25802SOL     OW82252   7.919   6.844   1.746
25802SOL    HW182253   7.880   6.855   1.659
25802SOL    HW282254   7.851   6.800   1.797
25803SOL     OW82255   7.652   5.806   1.516
25803SOL    HW182256   7.716   5.840   1.453
25803SOL    HW282257   7.692   5.819   1.601
25804SOL     OW82258   9.063   6.920   0.122
25804SOL    HW182259   9.057   7.000   0.175
25804SOL    HW282260   8.993   6.929   0.058
25805SOL     OW82261   7.963   7.264   0.400
25805SOL    HW182262   7.998   7.349   0.428
25805SOL    HW282263   7.998   7.252   0.312
25806SOL     OW82264   8.857   5.713   0.459
25806SOL    HW182265   8.879   5.685   0.370
25806SOL    HW282266   8.933   5.687   0.511
25807SOL     OW82267   7.632   7.364   1.190
25807SOL    HW182268   7.717   7.333   1.159
25807SOL    HW282269   7.585   7.389   1.111
25808SOL     OW82270   8.370   7.276   0.888
25808SOL    HW182271   8.429   7.214   0.931
25808SOL    HW282272   8.340   7.230   0.810
25809SOL     OW82273   7.827   6.330   0.455
25809SOL    HW182274   7.895   6.307   0.518
25809SOL    HW282275   7.754   6.360   0.508
25810SOL     OW82276   8.963   5.832   1.790
25810SOL    HW182277   8.938   5.868   1.875
25810SOL    HW282278   8.975   5.738   1.807
25811SOL     OW82279   8.065   5.690   0.118
25811SOL    HW182280   8.158   5.671   0.133
25811SOL    HW282281   8.061   5.721   0.027
25812SOL     OW82282   8.180   5.873   1.752
25812SOL    HW182283   8.268   5.838   1.742
25812SOL    HW282284   8.150   5.841   1.837
25813SOL     OW82285   8.297   7.057   1.209
25813SOL    HW182286   8.288   7.024   1.120
25813SOL    HW282287   8.391   7.052   1.227
25814SOL     OW82288   8.780   6.198   1.440
25814SOL    HW182289   8.822   6.158   1.516
25814SOL    HW282290   8.829   6.279   1.425
25815SOL     OW82291   8.279   6.953   0.958
25815SOL    HW182292   8.360   6.953   0.908
25815SOL    HW282293   8.209   6.951   0.893
25816SOL     OW82294   8.361   6.110   0.898
25816SOL    HW182295   8.345   6.093   0.806
25816SOL    HW282296   8.397   6.028   0.932
25817SOL     OW82297   7.998   5.664   0.504
25817SOL    HW182298   7.920   5.660   0.559
25817SOL    HW282299   7.983   5.739   0.446
25818SOL     OW82300   8.831   6.714   9.989
25818SOL    HW182301   8.884   6.682   0.061
25818SOL    HW282302   8.758   6.759   0.031
25819SOL     OW82303   8.429   5.866   0.432
25819SOL    HW182304   8.390   5.896   0.350
25819SOL    HW282305   8.521   5.890   0.426
25820SOL     OW82306   8.526   6.284   1.517
25820SOL    HW182307   8.506   6.202   1.562
25820SOL    HW282308   8.616   6.273   1.486
25821SOL     OW82309   7.935   6.685   0.718
25821SOL    HW182310   7.892   6.605   0.749
25821SOL    HW282311   7.889   6.707   0.637
25822SOL     OW82312   8.519   6.277   9.977
25822SOL    HW182313   8.469   6.336   0.033
25822SOL    HW282314   8.609   6.306   9.986
25823SOL     OW82315   7.571   6.193   1.391
25823SOL    HW182316   7.661   6.181   1.360
25823SOL    HW282317   7.579   6.256   1.463
25824SOL     OW82318   8.040   5.773   1.189
25824SOL    HW182319   8.106   5.712   1.222
25824SOL    HW282320   8.074   5.860   1.212
25825SOL     OW82321   8.319   6.033   0.636
25825SOL    HW182322   8.280   6.083   0.563
25825SOL    HW282323   8.365   5.961   0.593
25826SOL     OW82324   8.346   5.675   0.788
25826SOL    HW182325   8.332   5.664   0.694
25826SOL    HW282326   8.387   5.593   0.816
25827SOL     OW82327   8.918   6.767   0.885
25827SOL    HW182328   8.872   6.693   0.847
25827SOL    HW282329   8.968   6.804   0.812
25828SOL     OW82330   8.878   6.218   0.970
25828SOL    HW182331   8.827   6.138   0.956
25828SOL    HW282332   8.940   6.194   1.040
25829SOL     OW82333   9.219   6.328   0.351
25829SOL    HW182334   9.281   6.299   0.418
25829SOL    HW282335   9.244   6.419   0.333
25830SOL     OW82336   7.925   6.958   0.211
25830SOL    HW182337   7.849   6.953   0.268
25830SOL    HW282338   7.999   6.938   0.268
25831SOL     OW82339   9.051   6.881   0.679
25831SOL    HW182340   9.107   6.823   0.627
25831SOL    HW282341   9.098   6.964   0.682
25832SOL     OW82342   8.906   6.169   0.081
25832SOL    HW182343   9.002   6.176   0.083
25832SOL    HW282344   8.890   6.075   0.074
25833SOL     OW82345   7.956   5.860   0.314
25833SOL    HW182346   8.000   5.800   0.253
25833SOL    HW282347   7.942   5.940   0.264
25834SOL     OW82348   9.170   6.867   1.540
25834SOL    HW182349   9.244   6.809   1.520
25834SOL    HW282350   9.211   6.943   1.582
25835SOL     OW82351   8.532   6.932   1.331
25835SOL    HW182352   8.454   6.913   1.382
25835SOL    HW282353   8.603   6.892   1.380
25836SOL     OW82354   9.072   7.288   1.662
25836SOL    HW182355   9.059   7.306   1.568
25836SOL    HW282356   9.143   7.225   1.665
25837SOL     OW82357   8.517   6.770   1.105
25837SOL    HW182358   8.516   6.837   1.174
25837SOL    HW282359   8.525   6.820   1.024
25838SOL     OW82360   9.072   6.697   1.103
25838SOL    HW182361   9.061   6.771   1.163
25838SOL    HW282362   9.019   6.721   1.026
25839SOL     OW82363   8.309   5.720   1.331
25839SOL    HW182364   8.350   5.667   1.263
25839SOL    HW282365   8.382   5.762   1.376
25840SOL     OW82366   8.188   6.619   0.374
25840SOL    HW182367   8.170   6.590   0.463
25840SOL    HW282368   8.265   6.568   0.347
25841SOL     OW82369   7.857   6.416   1.312
25841SOL    HW182370   7.928   6.425   1.375
25841SOL    HW282371   7.851   6.321   1.297
25842SOL     OW82372   8.724   5.992   1.264
25842SOL    HW182373   8.759   6.057   1.325
25842SOL    HW282374   8.662   6.041   1.210
25843SOL     OW82375   7.557   7.174   1.383
25843SOL    HW182376   7.554   7.247   1.321
25843SOL    HW282377   7.639   7.129   1.364
25844SOL     OW82378   7.789   6.714   0.489
25844SOL    HW182379   7.757   6.791   0.443
25844SOL    HW282380   7.782   6.643   0.424
25845SOL     OW82381   7.993   6.064   0.836
25845SOL    HW182382   7.995   6.131   0.767
25845SOL    HW282383   8.050   6.099   0.904
25846SOL     OW82384   8.653   6.938   0.358
25846SOL    HW182385   8.724   7.002   0.343
25846SOL    HW282386   8.577   6.992   0.380
25847SOL     OW82387   8.714   7.079   1.183
25847SOL    HW182388   8.781   7.097   1.249
25847SOL    HW282389   8.648   7.028   1.229
25848SOL     OW82390   8.973   6.213   0.461
25848SOL    HW182391   8.980   6.238   0.553
25848SOL    HW282392   9.042   6.263   0.417
25849SOL     OW82393   7.781   7.048   1.304
25849SOL    HW182394   7.765   7.028   1.212
25849SOL    HW282395   7.872   7.077   1.307
25850SOL     OW82396   7.916   6.331   1.676
25850SOL    HW182397   7.961   6.388   1.613
25850SOL    HW282398   7.978   6.260   1.693
25851SOL     OW82399   9.055   6.402   1.721
25851SOL    HW182400   8.967   6.436   1.702
25851SOL    HW282401   9.109   6.434   1.649
25852SOL     OW82402   8.433   5.772   1.729
25852SOL    HW182403   8.496   5.839   1.703
25852SOL    HW282404   8.472   5.690   1.699
25853SOL     OW82405   8.044   6.461   1.093
25853SOL    HW182406   8.092   6.541   1.071
25853SOL    HW282407   7.998   6.483   1.174
25854SOL     OW82408   8.736   6.451   1.008
25854SOL    HW182409   8.646   6.418   1.002
25854SOL    HW282410   8.791   6.374   0.996
25855SOL     OW82411   7.762   5.765   1.182
25855SOL    HW182412   7.856   5.770   1.197
25855SOL    HW282413   7.735   5.682   1.222
25856SOL     OW82414   7.423   6.927   1.307
25856SOL    HW182415   7.476   6.859   1.348
25856SOL    HW282416   7.464   7.009   1.334
25857SOL     OW82417   8.129   6.203   1.029
25857SOL    HW182418   8.215   6.199   0.988
25857SOL    HW282419   8.113   6.296   1.043
25858SOL     OW82420   9.174   6.612   1.872
25858SOL    HW182421   9.127   6.533   1.843
25858SOL    HW282422   9.105   6.672   1.899
25859SOL     OW82423   7.749   5.607   0.640
25859SOL    HW182424   7.713   5.694   0.656
25859SOL    HW282425   7.772   5.574   0.727
25860SOL     OW82426   9.037   5.976   0.319
25860SOL    HW182427   9.087   5.914   0.372
25860SOL    HW282428   9.013   6.046   0.380
25861SOL     OW82429   8.467   6.345   0.996
25861SOL    HW182430   8.448   6.350   1.090
25861SOL    HW282431   8.437   6.259   0.970
25862SOL     OW82432   8.461   7.125   1.687
25862SOL    HW182433   8.418   7.193   1.634
25862SOL    HW282434   8.544   7.108   1.641
25863SOL     OW82435   9.302   7.131   1.624
25863SOL    HW182436   9.340   7.128   1.536
25863SOL    HW282437   9.377   7.132   1.683
25864SOL     OW82438   7.810   6.427   1.921
25864SOL    HW182439   7.883   6.483   1.947
25864SOL    HW282440   7.836   6.392   1.836
25865SOL     OW82441   8.904   5.889   0.090
25865SOL    HW182442   8.865   5.804   0.108
25865SOL    HW282443   8.952   5.911   0.169
25866SOL     OW82444   8.769   6.399   0.035
25866SOL    HW182445   8.819   6.318   0.045
25866SOL    HW282446   8.832   6.463   0.004
25867SOL     OW82447   8.538   6.945   0.872
25867SOL    HW182448   8.542   6.869   0.815
25867SOL    HW282449   8.628   6.975   0.878
25868SOL     OW82450   7.800   6.348   1.003
25868SOL    HW182451   7.796   6.386   0.915
25868SOL    HW282452   7.881   6.384   1.040
25869SOL     OW82453   7.768   6.081   0.989
25869SOL    HW182454   7.766   6.176   0.998
25869SOL    HW282455   7.841   6.065   0.929
25870SOL     OW82456   8.562   6.019   1.664
25870SOL    HW182457   8.540   6.046   1.753
25870SOL    HW282458   8.657   6.027   1.659
25871SOL     OW82459   8.520   5.878   1.424
25871SOL    HW182460   8.526   5.922   1.509
25871SOL    HW282461   8.609   5.881   1.389
25872SOL     OW82462   7.463   6.872   0.176
25872SOL    HW182463   7.372   6.882   0.148
25872SOL    HW282464   7.465   6.786   0.219
25873SOL     OW82465   7.508   7.431   0.950
25873SOL    HW182466   7.448   7.449   0.877
25873SOL    HW282467   7.595   7.440   0.911
25874SOL     OW82468   7.936   7.168   0.906
25874SOL    HW182469   8.004   7.234   0.919
25874SOL    HW282470   7.981   7.094   0.865
25875SOL     OW82471   8.391   6.337   1.269
25875SOL    HW182472   8.457   6.336   1.338
25875SOL    HW282473   8.317   6.289   1.304
25876SOL     OW82474   7.503   6.128   1.118
25876SOL    HW182475   7.573   6.131   1.053
25876SOL    HW282476   7.539   6.172   1.195
25877SOL     OW82477   7.582   6.087   1.734
25877SOL    HW182478   7.666   6.042   1.723
25877SOL    HW282479   7.598   6.175   1.697
25878SOL     OW82480   8.808   6.512   1.651
25878SOL    HW182481   8.839   6.602   1.662
25878SOL    HW282482   8.822   6.494   1.558
25879SOL     OW82483   8.262   6.129   0.379
25879SOL    HW182484   8.266   6.064   0.309
25879SOL    HW282485   8.193   6.190   0.351
25880SOL     OW82486   9.063   6.124   1.160
25880SOL    HW182487   9.064   6.098   1.252
25880SOL    HW282488   9.154   6.141   1.138
25881SOL     OW82489   7.639   7.113   1.792
25881SOL    HW182490   7.656   7.207   1.787
25881SOL    HW282491   7.723   7.075   1.821
25882SOL     OW82492   8.146   6.021   1.230
25882SOL    HW182493   8.240   6.005   1.223
25882SOL    HW282494   8.128   6.087   1.162
25883SOL     OW82495   8.342   7.340   1.548
25883SOL    HW182496   8.333   7.374   1.459
25883SOL    HW282497   8.383   7.411   1.597
25884SOL     OW82498   7.916   6.071   0.149
25884SOL    HW182499   7.971   6.149   0.160
25884SOL    HW282500   7.828   6.106   0.134
25885SOL     OW82501   7.542   6.715   1.471
25885SOL    HW182502   7.556   6.663   1.550
25885SOL    HW282503   7.567   6.657   1.399
25886SOL     OW82504   8.728   6.627   1.219
25886SOL    HW182505   8.754   6.572   1.145
25886SOL    HW282506   8.652   6.675   1.186
25887SOL     OW82507   8.744   6.407   0.323
25887SOL    HW182508   8.742   6.497   0.357
25887SOL    HW282509   8.765   6.417   0.230
25888SOL     OW82510   9.257   7.291   1.198
25888SOL    HW182511   9.310   7.327   1.127
25888SOL    HW282512   9.227   7.206   1.164
25889SOL     OW82513   8.668   7.319   1.054
25889SOL    HW182514   8.753   7.348   1.021
25889SOL    HW282515   8.685   7.234   1.094
25890SOL     OW82516   8.107   7.267   1.669
25890SOL    HW182517   8.063   7.287   1.587
25890SOL    HW282518   8.199   7.288   1.653
25891SOL     OW82519   8.341   5.641   0.118
25891SOL    HW182520   8.344   5.616   0.026
25891SOL    HW282521   8.417   5.596   0.157
25892SOL     OW82522   9.190   5.802   0.464
25892SOL    HW182523   9.263   5.758   0.421
25892SOL    HW282524   9.149   5.734   0.518
25893SOL     OW82525   8.734   6.529   0.652
25893SOL    HW182526   8.827   6.510   0.666
25893SOL    HW282527   8.732   6.581   0.572
25894SOL     OW82528   8.276   6.883   1.430
25894SOL    HW182529   8.231   6.920   1.506
25894SOL    HW282530   8.254   6.943   1.358
25895SOL     OW82531   8.036   7.204   0.141
25895SOL    HW182532   8.115   7.197   0.087
25895SOL    HW282533   8.002   7.115   0.145
25896SOL     OW82534   9.061   7.346   1.387
25896SOL    HW182535   9.129   7.318   1.326
25896SOL    HW282536   9.055   7.441   1.373
25897SOL     OW82537   7.683   5.860   0.742
25897SOL    HW182538   7.595   5.880   0.710
25897SOL    HW282539   7.742   5.905   0.682
25898SOL     OW82540   8.611   7.202   0.016
25898SOL    HW182541   8.570   7.221   0.100
25898SOL    HW282542   8.614   7.287   9.971
25899SOL     OW82543   8.281   6.609   1.405
25899SOL    HW182544   8.320   6.588   1.321
25899SOL    HW282545   8.276   6.705   1.407
25900SOL     OW82546   8.398   6.457   0.310
25900SOL    HW182547   8.449   6.493   0.237
25900SOL    HW282548   8.457   6.394   0.351
25901SOL     OW82549   8.882   7.188   0.009
25901SOL    HW182550   8.901   7.237   0.089
25901SOL    HW282551   8.787   7.173   0.012
25902SOL     OW82552   7.772   6.877   1.521
25902SOL    HW182553   7.785   6.935   1.446
25902SOL    HW282554   7.697   6.823   1.497
25903SOL     OW82555   9.045   6.919   1.284
25903SOL    HW182556   9.104   6.891   1.353
25903SOL    HW282557   9.102   6.962   1.220
25904SOL     OW82558   8.532   6.703   0.750
25904SOL    HW182559   8.459   6.646   0.776
25904SOL    HW282560   8.599   6.643   0.719
25905SOL     OW82561   8.476   5.842   0.969
25905SOL    HW182562   8.432   5.808   0.891
25905SOL    HW282563   8.482   5.767   1.028
25906SOL     OW82564   8.072   7.063   0.551
25906SOL    HW182565   8.104   7.006   0.480
25906SOL    HW282566   8.024   7.132   0.506
25907SOL     OW82567   9.176   6.007   1.397
25907SOL    HW182568   9.251   6.066   1.401
25907SOL    HW282569   9.210   5.927   1.358
25908SOL     OW82570   7.684   6.921   0.343
25908SOL    HW182571   7.617   6.911   0.276
25908SOL    HW282572   7.644   6.977   0.409
25909SOL     OW82573   7.564   6.583   1.718
25909SOL    HW182574   7.487   6.568   1.772
25909SOL    HW282575   7.621   6.637   1.772
25910SOL     OW82576   8.103   5.793   1.496
25910SOL    HW182577   8.176   5.764   1.442
25910SOL    HW282578   8.142   5.811   1.581
25911SOL     OW82579   7.523   5.909   0.104
25911SOL    HW182580   7.449   5.966   0.124
25911SOL    HW282581   7.597   5.968   0.094
25912SOL     OW82582   8.872   6.457   1.387
25912SOL    HW182583   8.819   6.513   1.331
25912SOL    HW282584   8.958   6.457   1.346
25913SOL     OW82585   7.503   5.713   0.303
25913SOL    HW182586   7.498   5.772   0.228
25913SOL    HW282587   7.590   5.728   0.340
25914SOL     OW82588   8.608   6.818   0.115
25914SOL    HW182589   8.541   6.876   0.080
25914SOL    HW282590   8.628   6.853   0.202
25915SOL     OW82591   8.073   6.442   1.476
25915SOL    HW182592   8.134   6.513   1.456
25915SOL    HW282593   8.123   6.362   1.458
25916SOL     OW82594   8.926   7.401   0.984
25916SOL    HW182595   8.962   7.469   0.928
25916SOL    HW282596   8.982   7.325   0.968
25917SOL     OW82597   8.124   6.142   1.702
25917SOL    HW182598   8.183   6.196   1.755
25917SOL    HW282599   8.148   6.052   1.723
25918SOL     OW82600   8.931   6.769   1.651
25918SOL    HW182601   8.943   6.785   1.744
25918SOL    HW282602   9.014   6.796   1.611
25919SOL     OW82603   7.751   7.340   1.525
25919SOL    HW182604   7.732   7.360   1.617
25919SOL    HW282605   7.675   7.290   1.496
25920SOL     OW82606   9.115   6.473   1.251
25920SOL    HW182607   9.190   6.431   1.209
25920SOL    HW282608   9.099   6.552   1.199
25921SOL     OW82609   8.705   5.951   0.438
25921SOL    HW182610   8.757   5.871   0.437
25921SOL    HW282611   8.706   5.979   0.530
25922SOL     OW82612   7.990   6.291   0.674
25922SOL    HW182613   8.062   6.352   0.656
25922SOL    HW282614   7.921   6.346   0.711
25923SOL     OW82615   9.176   5.974   1.682
25923SOL    HW182616   9.167   5.979   1.587
25923SOL    HW282617   9.109   5.911   1.710
25924SOL     OW82618   9.201   6.499   1.512
25924SOL    HW182619   9.258   6.577   1.508
25924SOL    HW282620   9.170   6.487   1.423
25925SOL     OW82621   8.402   6.993   0.068
25925SOL    HW182622   8.308   6.984   0.055
25925SOL    HW282623   8.412   7.070   0.124
25926SOL     OW82624   8.102   7.381   0.927
25926SOL    HW182625   8.086   7.475   0.920
25926SOL    HW282626   8.195   7.371   0.908
25927SOL     OW82627   8.323   6.547   0.861
25927SOL    HW182628   8.373   6.485   0.914
25927SOL    HW282629   8.274   6.599   0.925
25928SOL     OW82630   8.543   6.549   0.100
25928SOL    HW182631   8.559   6.644   0.100
25928SOL    HW282632   8.624   6.512   0.066
25929SOL     OW82633   7.685   6.778   1.880
25929SOL    HW182634   7.608   6.834   1.864
25929SOL    HW282635   7.710   6.798   1.970
25930SOL     OW82636   8.137   6.990   1.642
25930SOL    HW182637   8.052   6.956   1.670
25930SOL    HW282638   8.132   7.084   1.657
25931SOL     OW82639   9.305   5.786   1.287
25931SOL    HW182640   9.362   5.804   1.362
25931SOL    HW282641   9.346   5.710   1.244
25932SOL     OW82642   7.845   5.974   0.550
25932SOL    HW182643   7.876   5.940   0.467
25932SOL    HW282644   7.915   6.032   0.581
25933SOL     OW82645   9.198   7.049   1.083
25933SOL    HW182646   9.226   7.070   0.993
25933SOL    HW282647   9.262   6.985   1.113
25934SOL     OW82648   7.814   6.141   1.276
25934SOL    HW182649   7.850   6.071   1.330
25934SOL    HW282650   7.831   6.113   1.186
25935SOL     OW82651   8.322   7.150   0.644
25935SOL    HW182652   8.364   7.121   0.564
25935SOL    HW282653   8.229   7.132   0.630
25936SOL     OW82654   8.891   5.843   1.091
25936SOL    HW182655   8.884   5.748   1.100
25936SOL    HW282656   8.846   5.877   1.168
25937SOL     OW82657   8.450   5.609   1.119
25937SOL    HW182658   8.408   5.555   1.052
25937SOL    HW282659   8.532   5.564   1.138
25938SOL     OW82660   8.170   6.903   0.348
25938SOL    HW182661   8.183   6.809   0.354
25938SOL    HW282662   8.256   6.939   0.330
25939SOL     OW82663   8.043   7.122   1.284
25939SOL    HW182664   8.040   7.206   1.330
25939SOL    HW282665   8.134   7.114   1.255
25940SOL     OW82666   8.805   5.633   0.152
25940SOL    HW182667   8.869   5.567   0.177
25940SOL    HW282668   8.721   5.597   0.181
25941SOL     OW82669   8.715   6.101   0.664
25941SOL    HW182670   8.659   6.175   0.688
25941SOL    HW282671   8.734   6.057   0.747
25942SOL     OW82672   7.490   6.632   0.314
25942SOL    HW182673   7.582   6.609   0.305
25942SOL    HW282674   7.462   6.591   0.395
25943SOL     OW82675   7.617   6.237   2.031
25943SOL    HW182676   7.653   6.307   1.977
25943SOL    HW282677   7.694   6.185   2.055
25944SOL     OW82678   7.580   5.860   2.841
25944SOL    HW182679   7.621   5.774   2.843
25944SOL    HW282680   7.623   5.906   2.768
25945SOL     OW82681   7.451   6.008   2.523
25945SOL    HW182682   7.484   6.097   2.513
25945SOL    HW282683   7.526   5.958   2.554
25946SOL     OW82684   7.943   6.880   3.138
25946SOL    HW182685   8.005   6.825   3.091
25946SOL    HW282686   7.966   6.969   3.112
25947SOL     OW82687   8.981   7.081   2.524
25947SOL    HW182688   8.946   7.084   2.613
25947SOL    HW282689   8.909   7.110   2.468
25948SOL     OW82690   8.577   6.299   2.592
25948SOL    HW182691   8.631   6.377   2.579
25948SOL    HW282692   8.539   6.281   2.506
25949SOL     OW82693   9.231   6.164   2.111
25949SOL    HW182694   9.194   6.177   2.024
25949SOL    HW282695   9.200   6.078   2.138
25950SOL     OW82696   8.152   6.734   2.910
25950SOL    HW182697   8.233   6.732   2.960
25950SOL    HW282698   8.158   6.813   2.857
25951SOL     OW82699   8.271   6.419   3.671
25951SOL    HW182700   8.342   6.452   3.726
25951SOL    HW282701   8.297   6.444   3.582
25952SOL     OW82702   8.151   6.576   2.506
25952SOL    HW182703   8.219   6.573   2.574
25952SOL    HW282704   8.083   6.634   2.542
25953SOL     OW82705   8.128   6.776   3.642
25953SOL    HW182706   8.215   6.736   3.637
25953SOL    HW282707   8.137   6.858   3.593
25954SOL     OW82708   8.915   7.098   3.253
25954SOL    HW182709   8.958   7.177   3.220
25954SOL    HW282710   8.949   7.087   3.342
25955SOL     OW82711   7.890   5.931   3.263
25955SOL    HW182712   7.949   5.961   3.194
25955SOL    HW282713   7.945   5.874   3.317
25956SOL     OW82714   9.042   6.135   2.604
25956SOL    HW182715   9.038   6.164   2.513
25956SOL    HW282716   9.122   6.084   2.610
25957SOL     OW82717   7.696   7.309   2.367
25957SOL    HW182718   7.720   7.371   2.435
25957SOL    HW282719   7.776   7.297   2.315
25958SOL     OW82720   8.551   6.963   3.610
25958SOL    HW182721   8.603   6.948   3.689
25958SOL    HW282722   8.504   6.881   3.597
25959SOL     OW82723   7.695   7.027   2.365
25959SOL    HW182724   7.689   7.122   2.372
25959SOL    HW282725   7.644   6.994   2.440
25960SOL     OW82726   8.010   7.348   3.270
25960SOL    HW182727   8.016   7.434   3.311
25960SOL    HW282728   8.101   7.321   3.257
25961SOL     OW82729   8.020   6.591   2.012
25961SOL    HW182730   8.070   6.634   1.943
25961SOL    HW282731   8.072   6.603   2.092
25962SOL     OW82732   9.087   5.714   3.370
25962SOL    HW182733   9.172   5.672   3.387
25962SOL    HW282734   9.109   5.791   3.317
25963SOL     OW82735   7.551   6.250   2.442
25963SOL    HW182736   7.644   6.253   2.420
25963SOL    HW282737   7.541   6.314   2.512
25964SOL     OW82738   7.396   7.175   1.928
25964SOL    HW182739   7.471   7.115   1.927
25964SOL    HW282740   7.423   7.247   1.871
25965SOL     OW82741   9.113   6.489   2.421
25965SOL    HW182742   9.197   6.454   2.392
25965SOL    HW282743   9.106   6.575   2.379
25966SOL     OW82744   7.666   6.310   3.471
25966SOL    HW182745   7.762   6.315   3.467
25966SOL    HW282746   7.637   6.402   3.468
25967SOL     OW82747   7.947   6.988   2.646
25967SOL    HW182748   7.952   6.892   2.645
25967SOL    HW282749   7.972   7.013   2.557
25968SOL     OW82750   8.733   6.803   3.291
25968SOL    HW182751   8.756   6.737   3.225
25968SOL    HW282752   8.804   6.797   3.355
25969SOL     OW82753   8.219   5.588   2.349
25969SOL    HW182754   8.276   5.665   2.345
25969SOL    HW282755   8.132   5.623   2.364
25970SOL     OW82756   7.601   6.580   3.120
25970SOL    HW182757   7.683   6.533   3.103
25970SOL    HW282758   7.601   6.653   3.058
25971SOL     OW82759   8.573   7.396   3.473
25971SOL    HW182760   8.591   7.473   3.419
25971SOL    HW282761   8.618   7.324   3.428
25972SOL     OW82762   7.823   5.899   3.596
25972SOL    HW182763   7.907   5.943   3.588
25972SOL    HW282764   7.845   5.807   3.608
25973SOL     OW82765   8.870   7.016   2.788
25973SOL    HW182766   8.823   7.028   2.870
25973SOL    HW282767   8.861   6.922   2.769
25974SOL     OW82768   9.078   7.281   2.295
25974SOL    HW182769   9.004   7.333   2.325
25974SOL    HW282770   9.109   7.236   2.373
25975SOL     OW82771   8.089   6.290   2.054
25975SOL    HW182772   8.146   6.295   1.977
25975SOL    HW282773   8.070   6.381   2.076
25976SOL     OW82774   8.674   6.020   2.872
25976SOL    HW182775   8.659   5.927   2.854
25976SOL    HW282776   8.769   6.029   2.881
25977SOL     OW82777   8.167   6.185   3.326
25977SOL    HW182778   8.178   6.163   3.418
25977SOL    HW282779   8.179   6.102   3.280
25978SOL     OW82780   8.770   6.113   3.576
25978SOL    HW182781   8.801   6.144   3.660
25978SOL    HW282782   8.810   6.027   3.565
25979SOL     OW82783   8.376   6.491   3.422
25979SOL    HW182784   8.424   6.414   3.390
25979SOL    HW282785   8.344   6.534   3.343
25980SOL     OW82786   8.417   5.975   3.063
25980SOL    HW182787   8.373   5.913   3.121
25980SOL    HW282788   8.431   5.926   2.982
25981SOL     OW82789   8.474   6.254   2.337
25981SOL    HW182790   8.543   6.215   2.284
25981SOL    HW282791   8.394   6.212   2.307
25982SOL     OW82792   7.494   6.432   2.641
25982SOL    HW182793   7.573   6.409   2.690
25982SOL    HW282794   7.461   6.510   2.685
25983SOL     OW82795   7.498   7.395   3.512
25983SOL    HW182796   7.527   7.385   3.603
25983SOL    HW282797   7.540   7.475   3.482
25984SOL     OW82798   8.385   5.872   2.020
25984SOL    HW182799   8.424   5.952   1.985
25984SOL    HW282800   8.429   5.802   1.973
25985SOL     OW82801   9.212   6.232   3.622
25985SOL    HW182802   9.306   6.221   3.609
25985SOL    HW282803   9.174   6.151   3.588
25986SOL     OW82804   8.738   6.724   2.385
25986SOL    HW182805   8.817   6.705   2.334
25986SOL    HW282806   8.702   6.802   2.343
25987SOL     OW82807   8.389   7.011   2.355
25987SOL    HW182808   8.375   7.093   2.308
25987SOL    HW282809   8.379   7.034   2.447
25988SOL     OW82810   9.227   6.648   2.747
25988SOL    HW182811   9.188   6.705   2.681
25988SOL    HW282812   9.154   6.623   2.803
25989SOL     OW82813   8.662   7.142   3.393
25989SOL    HW182814   8.656   7.061   3.444
25989SOL    HW282815   8.743   7.133   3.343
25990SOL     OW82816   7.758   6.611   2.142
25990SOL    HW182817   7.847   6.641   2.122
25990SOL    HW282818   7.741   6.541   2.079
25991SOL     OW82819   8.977   6.407   2.643
25991SOL    HW182820   9.008   6.317   2.653
25991SOL    HW282821   9.036   6.445   2.578
25992SOL     OW82822   7.864   6.863   3.580
25992SOL    HW182823   7.828   6.861   3.491
25992SOL    HW282824   7.945   6.813   3.575
25993SOL     OW82825   8.570   7.328   2.110
25993SOL    HW182826   8.621   7.409   2.106
25993SOL    HW282827   8.592   7.282   2.028
25994SOL     OW82828   7.593   5.826   3.443
25994SOL    HW182829   7.620   5.804   3.354
25994SOL    HW282830   7.674   5.852   3.487
25995SOL     OW82831   7.940   7.283   2.246
25995SOL    HW182832   7.966   7.372   2.271
25995SOL    HW282833   8.006   7.257   2.181
25996SOL     OW82834   8.847   5.688   2.323
25996SOL    HW182835   8.838   5.664   2.231
25996SOL    HW282836   8.940   5.706   2.334
25997SOL     OW82837   7.706   7.295   3.175
25997SOL    HW182838   7.793   7.336   3.175
25997SOL    HW282839   7.671   7.314   3.088
25998SOL     OW82840   8.372   7.259   2.764
25998SOL    HW182841   8.464   7.245   2.740
25998SOL    HW282842   8.322   7.227   2.690
25999SOL     OW82843   7.815   6.240   2.367
25999SOL    HW182844   7.835   6.155   2.406
25999SOL    HW282845   7.888   6.296   2.394
26000SOL     OW82846   8.900   5.873   3.559
26000SOL    HW182847   8.933   5.846   3.644
26000SOL    HW282848   8.906   5.794   3.505
26001SOL     OW82849   8.120   5.785   2.011
26001SOL    HW182850   8.212   5.807   2.025
26001SOL    HW282851   8.121   5.692   1.988
26002SOL     OW82852   8.222   5.827   3.597
26002SOL    HW182853   8.270   5.748   3.621
26002SOL    HW282854   8.255   5.894   3.657
26003SOL     OW82855   8.264   7.045   3.045
26003SOL    HW182856   8.256   7.025   2.951
26003SOL    HW282857   8.358   7.053   3.060
26004SOL     OW82858   8.755   6.182   3.306
26004SOL    HW182859   8.770   6.163   3.399
26004SOL    HW282860   8.805   6.262   3.290
26005SOL     OW82861   8.234   6.968   2.781
26005SOL    HW182862   8.328   6.961   2.765
26005SOL    HW282863   8.202   7.023   2.710
26006SOL     OW82864   8.393   6.067   2.735
26006SOL    HW182865   8.359   6.054   2.646
26006SOL    HW282866   8.417   5.980   2.765
26007SOL     OW82867   7.938   5.679   2.407
26007SOL    HW182868   7.926   5.720   2.493
26007SOL    HW282869   7.942   5.752   2.346
26008SOL     OW82870   8.776   6.658   2.026
26008SOL    HW182871   8.826   6.669   2.107
26008SOL    HW282872   8.829   6.699   1.959
26009SOL     OW82873   8.377   5.819   2.298
26009SOL    HW182874   8.382   5.827   2.202
26009SOL    HW282875   8.467   5.827   2.327
26010SOL     OW82876   8.494   6.266   3.306
26010SOL    HW182877   8.465   6.205   3.374
26010SOL    HW282878   8.587   6.246   3.295
26011SOL     OW82879   8.627   7.200   2.672
26011SOL    HW182880   8.660   7.260   2.605
26011SOL    HW282881   8.677   7.222   2.751
26012SOL     OW82882   7.936   6.711   2.623
26012SOL    HW182883   7.910   6.654   2.695
26012SOL    HW282884   7.866   6.702   2.558
26013SOL     OW82885   8.712   7.411   2.494
26013SOL    HW182886   8.769   7.470   2.446
26013SOL    HW282887   8.646   7.467   2.533
26014SOL     OW82888   8.517   6.119   1.925
26014SOL    HW182889   8.556   6.199   1.889
26014SOL    HW282890   8.558   6.109   2.011
26015SOL     OW82891   7.517   6.146   3.301
26015SOL    HW182892   7.584   6.140   3.232
26015SOL    HW282893   7.555   6.205   3.366
26016SOL     OW82894   7.940   5.761   2.954
26016SOL    HW182895   7.953   5.671   2.984
26016SOL    HW282896   7.903   5.752   2.866
26017SOL     OW82897   8.276   6.007   2.487
26017SOL    HW182898   8.262   6.060   2.409
26017SOL    HW282899   8.315   5.926   2.454
26018SOL     OW82900   8.460   5.665   2.611
26018SOL    HW182901   8.537   5.643   2.558
26018SOL    HW282902   8.441   5.584   2.659
26019SOL     OW82903   8.876   6.744   2.722
26019SOL    HW182904   8.816   6.691   2.671
26019SOL    HW282905   8.948   6.765   2.662
26020SOL     OW82906   8.933   6.143   2.864
26020SOL    HW182907   8.979   6.127   2.782
26020SOL    HW282908   9.001   6.147   2.930
26021SOL     OW82909   9.321   6.368   2.288
26021SOL    HW182910   9.391   6.328   2.339
26021SOL    HW282911   9.310   6.310   2.212
26022SOL     OW82912   7.885   7.066   1.918
26022SOL    HW182913   7.842   7.027   1.994
26022SOL    HW282914   7.917   6.991   1.868
26023SOL     OW82915   9.090   6.815   2.565
26023SOL    HW182916   9.114   6.780   2.480
26023SOL    HW282917   9.076   6.909   2.550
26024SOL     OW82918   8.854   6.169   1.920
26024SOL    HW182919   8.851   6.084   1.964
26024SOL    HW282920   8.947   6.191   1.917
26025SOL     OW82921   7.961   5.883   2.215
26025SOL    HW182922   8.016   5.844   2.147
26025SOL    HW282923   7.921   5.959   2.174
26026SOL     OW82924   9.210   6.817   3.454
26026SOL    HW182925   9.293   6.794   3.412
26026SOL    HW282926   9.225   6.904   3.491
26027SOL     OW82927   8.519   6.916   3.172
26027SOL    HW182928   8.445   6.911   3.233
26027SOL    HW282929   8.594   6.882   3.221
26028SOL     OW82930   9.035   7.169   3.491
26028SOL    HW182931   9.067   7.234   3.428
26028SOL    HW282932   9.045   7.211   3.576
26029SOL     OW82933   8.432   6.758   2.964
26029SOL    HW182934   8.471   6.807   3.037
26029SOL    HW282935   8.463   6.804   2.885
26030SOL     OW82936   9.002   6.644   2.948
26030SOL    HW182937   9.024   6.717   3.005
26030SOL    HW282938   8.961   6.684   2.872
26031SOL     OW82939   8.325   5.754   3.210
26031SOL    HW182940   8.361   5.688   3.152
26031SOL    HW282941   8.393   5.769   3.275
26032SOL     OW82942   8.399   6.715   3.592
26032SOL    HW182943   8.431   6.672   3.671
26032SOL    HW282944   8.404   6.648   3.524
26033SOL     OW82945   8.179   6.607   2.232
26033SOL    HW182946   8.174   6.596   2.327
26033SOL    HW282947   8.256   6.557   2.206
26034SOL     OW82948   7.842   6.424   3.099
26034SOL    HW182949   7.920   6.432   3.154
26034SOL    HW282950   7.809   6.336   3.116
26035SOL     OW82951   8.686   5.947   3.181
26035SOL    HW182952   8.722   6.029   3.215
26035SOL    HW282953   8.616   5.975   3.121
26036SOL     OW82954   7.560   7.055   3.240
26036SOL    HW182955   7.597   7.134   3.201
26036SOL    HW282956   7.536   7.000   3.165
26037SOL     OW82957   7.758   6.737   2.406
26037SOL    HW182958   7.766   6.826   2.374
26037SOL    HW282959   7.756   6.683   2.327
26038SOL     OW82960   7.998   6.163   2.686
26038SOL    HW182961   8.022   6.227   2.619
26038SOL    HW282962   8.067   6.170   2.752
26039SOL     OW82963   8.646   6.956   2.269
26039SOL    HW182964   8.694   7.035   2.296
26039SOL    HW282965   8.557   6.971   2.301
26040SOL     OW82966   8.744   7.046   3.038
26040SOL    HW182967   8.806   7.054   3.111
26040SOL    HW282968   8.666   7.005   3.078
26041SOL     OW82969   9.051   6.231   2.341
26041SOL    HW182970   9.056   6.322   2.370
26041SOL    HW282971   9.116   6.225   2.271
26042SOL     OW82972   7.943   6.341   3.488
26042SOL    HW182973   7.986   6.374   3.410
26042SOL    HW282974   8.006   6.278   3.525
26043SOL     OW82975   8.491   5.634   3.541
26043SOL    HW182976   8.498   5.711   3.485
26043SOL    HW282977   8.521   5.562   3.485
26044SOL     OW82978   7.950   5.652   3.581
26044SOL    HW182979   7.997   5.572   3.604
26044SOL    HW282980   7.989   5.680   3.498
26045SOL     OW82981   7.922   6.556   2.863
26045SOL    HW182982   8.000   6.609   2.882
26045SOL    HW282983   7.899   6.517   2.947
26046SOL     OW82984   8.755   6.351   2.841
26046SOL    HW182985   8.801   6.408   2.780
26046SOL    HW282986   8.820   6.285   2.865
26047SOL     OW82987   8.634   6.092   2.175
26047SOL    HW182988   8.637   6.012   2.227
26047SOL    HW282989   8.726   6.111   2.155
26048SOL     OW82990   7.677   5.754   3.188
26048SOL    HW182991   7.759   5.804   3.191
26048SOL    HW282992   7.701   5.671   3.148
26049SOL     OW82993   8.190   6.171   2.885
26049SOL    HW182994   8.260   6.131   2.833
26049SOL    HW282995   8.236   6.228   2.947
26050SOL     OW82996   9.156   6.598   3.747
26050SOL    HW182997   9.175   6.691   3.741
26050SOL    HW282998   9.105   6.589   3.827
26051SOL     OW82999   9.053   5.972   2.231
26051SOL    HW183000   9.079   5.896   2.282
26051SOL    HW283001   9.043   6.042   2.295
26052SOL     OW83002   8.375   7.149   3.508
26052SOL    HW183003   8.428   7.208   3.454
26052SOL    HW283004   8.438   7.087   3.544
26053SOL     OW83005   9.371   7.045   3.507
26053SOL    HW183006   9.391   7.076   3.419
26053SOL    HW283007   9.371   7.125   3.560
26054SOL     OW83008   7.818   6.537   3.641
26054SOL    HW183009   7.881   6.572   3.704
26054SOL    HW283010   7.867   6.474   3.589
26055SOL     OW83011   8.867   5.925   2.037
26055SOL    HW183012   8.837   5.834   2.047
26055SOL    HW283013   8.937   5.934   2.103
26056SOL     OW83014   8.663   6.342   1.823
26056SOL    HW183015   8.733   6.293   1.865
26056SOL    HW283016   8.707   6.397   1.759
26057SOL     OW83017   8.505   6.944   2.751
26057SOL    HW183018   8.524   6.879   2.683
26057SOL    HW283019   8.559   7.019   2.729
26058SOL     OW83020   7.727   6.364   2.769
26058SOL    HW183021   7.796   6.426   2.794
26058SOL    HW283022   7.758   6.279   2.803
26059SOL     OW83023   7.806   6.082   2.866
26059SOL    HW183024   7.827   5.991   2.885
26059SOL    HW283025   7.870   6.107   2.799
26060SOL     OW83026   8.489   6.090   3.528
26060SOL    HW183027   8.437   6.077   3.607
26060SOL    HW283028   8.578   6.106   3.560
26061SOL     OW83029   8.519   5.854   3.381
26061SOL    HW183030   8.505   5.936   3.429
26061SOL    HW283031   8.589   5.875   3.319
26062SOL     OW83032   7.459   6.892   2.052
26062SOL    HW183033   7.371   6.930   2.059
26062SOL    HW283034   7.450   6.804   2.090
26063SOL     OW83035   8.452   6.239   3.016
26063SOL    HW183036   8.465   6.280   3.102
26063SOL    HW283037   8.438   6.147   3.035
26064SOL     OW83038   7.499   6.111   2.951
26064SOL    HW183039   7.531   6.029   2.914
26064SOL    HW283040   7.578   6.158   2.978
26065SOL     OW83041   7.677   6.122   3.679
26065SOL    HW183042   7.727   6.046   3.648
26065SOL    HW283043   7.670   6.178   3.602
26066SOL     OW83044   8.895   6.496   3.533
26066SOL    HW183045   8.897   6.591   3.523
26066SOL    HW283046   8.872   6.463   3.446
26067SOL     OW83047   8.238   6.135   2.240
26067SOL    HW183048   8.267   6.061   2.188
26067SOL    HW283049   8.189   6.190   2.178
26068SOL     OW83050   9.129   6.173   3.061
26068SOL    HW183051   9.132   6.106   3.130
26068SOL    HW283052   9.209   6.158   3.011
26069SOL     OW83053   7.751   7.107   3.658
26069SOL    HW183054   7.764   7.168   3.586
26069SOL    HW283055   7.798   7.028   3.632
26070SOL     OW83056   8.047   5.999   3.056
26070SOL    HW183057   8.035   5.914   3.014
26070SOL    HW283058   8.099   6.050   2.994
26071SOL     OW83059   8.276   7.314   3.222
26071SOL    HW183060   8.334   7.295   3.147
26071SOL    HW283061   8.303   7.401   3.251
26072SOL     OW83062   7.863   6.132   2.115
26072SOL    HW183063   7.938   6.179   2.079
26072SOL    HW283064   7.845   6.176   2.198
26073SOL     OW83065   7.536   6.681   3.365
26073SOL    HW183066   7.612   6.738   3.376
26073SOL    HW283067   7.549   6.641   3.279
26074SOL     OW83068   8.762   6.609   3.086
26074SOL    HW183069   8.846   6.619   3.041
26074SOL    HW283070   8.700   6.586   3.017
26075SOL     OW83071   8.683   6.450   2.182
26075SOL    HW183072   8.755   6.438   2.244
26075SOL    HW283073   8.714   6.518   2.123
26076SOL     OW83074   9.187   7.323   3.003
26076SOL    HW183075   9.262   7.344   2.947
26076SOL    HW283076   9.164   7.233   2.980
26077SOL     OW83077   8.698   7.298   2.929
26077SOL    HW183078   8.782   7.341   2.913
26077SOL    HW283079   8.721   7.217   2.975
26078SOL     OW83080   8.148   7.277   3.607
26078SOL    HW183081   8.145   7.367   3.573
26078SOL    HW283082   8.233   7.244   3.580
26079SOL     OW83083   9.122   5.741   2.359
26079SOL    HW183084   9.209   5.738   2.318
26079SOL    HW283085   9.120   5.663   2.415
26080SOL     OW83086   8.774   7.199   2.332
26080SOL    HW183087   8.757   7.238   2.247
26080SOL    HW283088   8.752   7.267   2.395
26081SOL     OW83089   7.611   7.342   3.764
26081SOL    HW183090   7.686   7.297   3.724
26081SOL    HW283091   7.650   7.413   3.815
26082SOL     OW83092   8.741   6.518   2.565
26082SOL    HW183093   8.830   6.483   2.577
26082SOL    HW283094   8.749   6.579   2.492
26083SOL     OW83095   8.251   6.878   3.267
26083SOL    HW183096   8.205   6.912   3.343
26083SOL    HW283097   8.238   6.944   3.199
26084SOL     OW83098   8.131   7.212   2.065
26084SOL    HW183099   8.212   7.224   2.114
26084SOL    HW283100   8.136   7.122   2.031
26085SOL     OW83101   9.074   7.336   3.254
26085SOL    HW183102   9.118   7.336   3.169
26085SOL    HW283103   9.042   7.426   3.265
26086SOL     OW83104   9.192   5.766   2.809
26086SOL    HW183105   9.266   5.824   2.791
26086SOL    HW283106   9.229   5.678   2.804
26087SOL     OW83107   7.691   5.901   2.591
26087SOL    HW183108   7.760   5.947   2.543
26087SOL    HW283109   7.736   5.828   2.633
26088SOL     OW83110   8.658   7.198   1.884
26088SOL    HW183111   8.662   7.108   1.917
26088SOL    HW283112   8.591   7.195   1.815
26089SOL     OW83113   8.290   6.616   3.192
26089SOL    HW183114   8.354   6.630   3.122
26089SOL    HW283115   8.271   6.704   3.224
26090SOL     OW83116   8.390   6.454   2.147
26090SOL    HW183117   8.455   6.497   2.092
26090SOL    HW283118   8.441   6.406   2.212
26091SOL     OW83119   8.931   7.286   1.908
26091SOL    HW183120   8.844   7.248   1.893
26091SOL    HW283121   8.971   7.288   1.821
26092SOL     OW83122   7.746   6.867   3.333
26092SOL    HW183123   7.813   6.862   3.265
26092SOL    HW283124   7.685   6.934   3.301
26093SOL     OW83125   9.047   6.845   3.129
26093SOL    HW183126   9.141   6.864   3.137
26093SOL    HW283127   9.004   6.925   3.158
26094SOL     OW83128   8.532   6.745   2.570
26094SOL    HW183129   8.484   6.662   2.567
26094SOL    HW283130   8.603   6.735   2.507
26095SOL     OW83131   8.450   5.815   2.839
26095SOL    HW183132   8.454   5.773   2.753
26095SOL    HW283133   8.451   5.742   2.901
26096SOL     OW83134   8.030   7.061   2.396
26096SOL    HW183135   8.069   7.001   2.332
26096SOL    HW283136   7.985   7.126   2.342
26097SOL     OW83137   9.203   5.952   3.254
26097SOL    HW183138   9.277   6.012   3.260
26097SOL    HW283139   9.230   5.888   3.188
26098SOL     OW83140   7.722   6.944   2.107
26098SOL    HW183141   7.628   6.938   2.090
26098SOL    HW283142   7.728   6.977   2.197
26099SOL     OW83143   7.554   6.545   3.712
26099SOL    HW183144   7.559   6.471   3.771
26099SOL    HW283145   7.640   6.548   3.670
26100SOL     OW83146   8.094   5.769   3.366
26100SOL    HW183147   8.163   5.762   3.300
26100SOL    HW283148   8.141   5.794   3.446
26101SOL     OW83149   7.542   5.878   1.916
26101SOL    HW183150   7.490   5.829   1.853
26101SOL    HW283151   7.554   5.964   1.876
26102SOL     OW83152   8.867   6.430   3.269
26102SOL    HW183153   8.815   6.489   3.215
26102SOL    HW283154   8.953   6.430   3.227
26103SOL     OW83155   7.543   5.852   2.191
26103SOL    HW183156   7.548   5.860   2.096
26103SOL    HW283157   7.607   5.784   2.212
26104SOL     OW83158   8.639   6.940   1.988
26104SOL    HW183159   8.640   6.930   2.083
26104SOL    HW283160   8.731   6.940   1.963
26105SOL     OW83161   8.075   6.430   3.250
26105SOL    HW183162   8.146   6.492   3.230
26105SOL    HW283163   8.120   6.347   3.265
26106SOL     OW83164   8.948   7.390   2.869
26106SOL    HW183165   8.969   7.476   2.834
26106SOL    HW283166   9.026   7.363   2.917
26107SOL     OW83167   8.162   6.177   3.607
26107SOL    HW183168   8.205   6.260   3.626
26107SOL    HW283169   8.211   6.112   3.658
26108SOL     OW83170   8.935   6.764   3.482
26108SOL    HW183171   8.921   6.784   3.575
26108SOL    HW283172   9.024   6.794   3.464
26109SOL     OW83173   7.799   7.282   3.444
26109SOL    HW183174   7.731   7.283   3.377
26109SOL    HW283175   7.881   7.287   3.395
26110SOL     OW83176   9.103   6.444   3.129
26110SOL    HW183177   9.118   6.356   3.095
26110SOL    HW283178   9.083   6.496   3.051
26111SOL     OW83179   8.643   5.874   2.349
26111SOL    HW183180   8.709   5.807   2.336
26111SOL    HW283181   8.675   5.925   2.424
26112SOL     OW83182   8.065   6.319   2.459
26112SOL    HW183183   8.092   6.409   2.477
26112SOL    HW283184   8.140   6.280   2.413
26113SOL     OW83185   9.151   5.986   3.524
26113SOL    HW183186   9.176   5.974   3.432
26113SOL    HW283187   9.063   5.949   3.530
26114SOL     OW83188   9.171   6.537   3.384
26114SOL    HW183189   9.174   6.633   3.381
26114SOL    HW283190   9.163   6.510   3.293
26115SOL     OW83191   8.389   6.920   1.864
26115SOL    HW183192   8.467   6.929   1.920
26115SOL    HW283193   8.396   6.991   1.801
26116SOL     OW83194   8.024   7.376   2.773
26116SOL    HW183195   8.025   7.469   2.749
26116SOL    HW283196   8.116   7.350   2.772
26117SOL     OW83197   8.314   6.580   2.727
26117SOL    HW183198   8.397   6.571   2.774
26117SOL    HW283199   8.256   6.625   2.788
26118SOL     OW83200   8.539   6.567   1.924
26118SOL    HW183201   8.613   6.614   1.964
26118SOL    HW283202   8.577   6.485   1.892
26119SOL     OW83203   9.375   7.127   2.733
26119SOL    HW183204   9.368   7.097   2.642
26119SOL    HW283205   9.354   7.049   2.785
26120SOL     OW83206   7.642   6.815   3.738
26120SOL    HW183207   7.601   6.729   3.733
26120SOL    HW283208   7.718   6.809   3.680
26121SOL     OW83209   7.576   6.881   2.567
26121SOL    HW183210   7.574   6.873   2.662
26121SOL    HW283211   7.636   6.812   2.538
26122SOL     OW83212   8.143   7.007   3.493
26122SOL    HW183213   8.084   7.077   3.521
26122SOL    HW283214   8.230   7.047   3.494
26123SOL     OW83215   9.274   5.758   3.079
26123SOL    HW183216   9.362   5.727   3.059
26123SOL    HW283217   9.231   5.768   2.994
26124SOL     OW83218   7.909   6.005   2.467
26124SOL    HW183219   7.965   5.970   2.398
26124SOL    HW283220   7.970   6.034   2.534
26125SOL     OW83221   9.103   7.079   2.928
26125SOL    HW183222   9.029   7.064   2.869
26125SOL    HW283223   9.167   7.013   2.903
26126SOL     OW83224   7.750   6.147   3.133
26126SOL    HW183225   7.794   6.086   3.193
26126SOL    HW283226   7.786   6.126   3.047
26127SOL     OW83227   8.226   7.177   2.549
26127SOL    HW183228   8.236   7.263   2.508
26127SOL    HW283229   8.158   7.134   2.498
26128SOL     OW83230   8.851   5.803   3.005
26128SOL    HW183231   8.891   5.728   3.050
26128SOL    HW283232   8.802   5.848   3.074
26129SOL     OW83233   8.446   5.595   3.010
26129SOL    HW183234   8.392   5.535   2.957
26129SOL    HW283235   8.534   5.559   3.005
26130SOL     OW83236   8.169   6.890   2.231
26130SOL    HW183237   8.175   6.795   2.225
26130SOL    HW283238   8.255   6.917   2.265
26131SOL     OW83239   8.004   7.147   3.063
26131SOL    HW183240   7.998   7.214   3.131
26131SOL    HW283241   8.098   7.128   3.055
26132SOL     OW83242   8.801   5.659   2.053
26132SOL    HW183243   8.867   5.621   1.995
26132SOL    HW283244   8.723   5.606   2.038
26133SOL     OW83245   8.755   6.027   2.547
26133SOL    HW183246   8.762   6.122   2.559
26133SOL    HW283247   8.834   5.992   2.587
26134SOL     OW83248   8.929   5.813   2.742
26134SOL    HW183249   8.904   5.822   2.834
26134SOL    HW283250   9.024   5.811   2.743
26135SOL     OW83251   7.481   6.645   2.181
26135SOL    HW183252   7.576   6.651   2.173
26135SOL    HW283253   7.463   6.551   2.180
26136SOL     OW83254   8.343   7.249   2.232
26136SOL    HW183255   8.423   7.279   2.189
26136SOL    HW283256   8.321   7.319   2.293
26137SOL     OW83257   7.619   6.322   3.862
26137SOL    HW183258   7.626   6.272   3.943
26137SOL    HW283259   7.641   6.260   3.793
26138SOL     OW83260   7.595   5.987   4.812
26138SOL    HW183261   7.621   5.927   4.882
26138SOL    HW283262   7.536   5.935   4.757
26139SOL     OW83263   7.423   5.983   4.399
26139SOL    HW183264   7.399   5.916   4.334
26139SOL    HW283265   7.508   5.954   4.432
26140SOL     OW83266   7.952   6.813   4.902
26140SOL    HW183267   7.894   6.883   4.874
26140SOL    HW283268   8.038   6.853   4.907
26141SOL     OW83269   9.054   7.127   4.463
26141SOL    HW183270   9.002   7.097   4.537
26141SOL    HW283271   8.991   7.136   4.392
26142SOL     OW83272   8.596   6.273   4.386
26142SOL    HW183273   8.648   6.353   4.386
26142SOL    HW283274   8.538   6.283   4.462
26143SOL     OW83275   9.258   6.180   3.901
26143SOL    HW183276   9.227   6.192   3.811
26143SOL    HW283277   9.210   6.105   3.933
26144SOL     OW83278   8.189   6.773   4.685
26144SOL    HW183279   8.190   6.834   4.759
26144SOL    HW283280   8.209   6.828   4.609
26145SOL     OW83281   8.347   6.368   5.559
26145SOL    HW183282   8.375   6.441   5.614
26145SOL    HW283283   8.359   6.400   5.470
26146SOL     OW83284   8.146   6.586   4.369
26146SOL    HW183285   8.233   6.597   4.408
26146SOL    HW283286   8.089   6.644   4.419
26147SOL     OW83287   8.122   6.687   5.533
26147SOL    HW183288   8.168   6.767   5.556
26147SOL    HW283289   8.049   6.716   5.478
26148SOL     OW83290   7.747   6.974   4.787
26148SOL    HW183291   7.701   7.029   4.849
26148SOL    HW283292   7.799   7.035   4.734
26149SOL     OW83293   8.885   7.105   5.076
26149SOL    HW183294   8.944   7.180   5.086
26149SOL    HW283295   8.821   7.115   5.147
26150SOL     OW83296   7.918   6.036   5.260
26150SOL    HW183297   7.995   6.087   5.236
26150SOL    HW283298   7.952   5.947   5.275
26151SOL     OW83299   9.030   6.020   4.464
26151SOL    HW183300   8.953   6.028   4.409
26151SOL    HW283301   9.020   6.090   4.529
26152SOL     OW83302   7.679   7.270   4.193
26152SOL    HW183303   7.694   7.339   4.257
26152SOL    HW283304   7.754   7.275   4.134
26153SOL     OW83305   8.653   6.934   5.454
26153SOL    HW183306   8.735   6.885   5.456
26153SOL    HW283307   8.585   6.868   5.460
26154SOL     OW83308   7.689   7.031   4.365
26154SOL    HW183309   7.683   7.099   4.298
26154SOL    HW283310   7.783   7.021   4.381
26155SOL     OW83311   7.720   6.731   4.660
26155SOL    HW183312   7.785   6.671   4.695
26155SOL    HW283313   7.740   6.815   4.701
26156SOL     OW83314   7.968   7.436   5.087
26156SOL    HW183315   7.990   7.361   5.141
26156SOL    HW283316   8.034   7.502   5.109
26157SOL     OW83317   7.981   6.645   3.843
26157SOL    HW183318   8.041   6.684   3.779
26157SOL    HW283319   8.035   6.635   3.922
26158SOL     OW83320   9.038   5.757   5.158
26158SOL    HW183321   9.080   5.836   5.123
26158SOL    HW283322   9.020   5.777   5.249
26159SOL     OW83323   7.525   6.229   4.287
26159SOL    HW183324   7.491   6.143   4.314
26159SOL    HW283325   7.533   6.278   4.368
26160SOL     OW83326   9.148   6.484   4.335
26160SOL    HW183327   9.209   6.443   4.273
26160SOL    HW283328   9.124   6.567   4.294
26161SOL     OW83329   9.074   6.715   4.186
26161SOL    HW183330   9.155   6.693   4.139
26161SOL    HW283331   9.099   6.787   4.244
26162SOL     OW83332   7.651   6.337   5.262
26162SOL    HW183333   7.743   6.354   5.283
26162SOL    HW283334   7.603   6.405   5.309
26163SOL     OW83335   7.956   6.982   4.447
26163SOL    HW183336   7.951   6.887   4.453
26163SOL    HW283337   8.042   7.000   4.408
26164SOL     OW83338   8.707   6.787   5.145
26164SOL    HW183339   8.729   6.710   5.093
26164SOL    HW283340   8.781   6.799   5.204
26165SOL     OW83341   8.234   5.618   4.347
26165SOL    HW183342   8.286   5.682   4.297
26165SOL    HW283343   8.149   5.618   4.304
26166SOL     OW83344   7.642   6.566   4.997
26166SOL    HW183345   7.685   6.481   4.992
26166SOL    HW283346   7.687   6.620   4.932
26167SOL     OW83347   8.964   6.587   3.959
26167SOL    HW183348   8.894   6.531   3.991
26167SOL    HW283349   8.998   6.631   4.037
26168SOL     OW83350   8.612   7.372   5.371
26168SOL    HW183351   8.616   7.445   5.309
26168SOL    HW283352   8.639   7.296   5.320
26169SOL     OW83353   7.785   5.828   5.539
26169SOL    HW183354   7.846   5.886   5.584
26169SOL    HW283355   7.701   5.842   5.583
26170SOL     OW83356   8.914   7.011   4.671
26170SOL    HW183357   8.841   7.020   4.732
26170SOL    HW283358   8.905   6.922   4.636
26171SOL     OW83359   9.135   7.345   4.268
26171SOL    HW183360   9.106   7.300   4.188
26171SOL    HW283361   9.126   7.279   4.337
26172SOL     OW83362   8.122   6.327   3.904
26172SOL    HW183363   8.150   6.336   3.813
26172SOL    HW283364   8.183   6.380   3.954
26173SOL     OW83365   8.737   6.009   4.668
26173SOL    HW183366   8.649   5.975   4.654
26173SOL    HW283367   8.783   5.939   4.715
26174SOL     OW83368   9.043   7.226   4.032
26174SOL    HW183369   9.117   7.236   3.973
26174SOL    HW283370   8.967   7.214   3.975
26175SOL     OW83371   8.155   6.157   5.188
26175SOL    HW183372   8.198   6.149   5.273
26175SOL    HW283373   8.219   6.123   5.126
26176SOL     OW83374   8.792   6.128   5.421
26176SOL    HW183375   8.826   6.212   5.452
26176SOL    HW283376   8.837   6.063   5.474
26177SOL     OW83377   8.394   6.455   5.299
26177SOL    HW183378   8.447   6.385   5.261
26177SOL    HW283379   8.340   6.487   5.227
26178SOL     OW83380   8.347   6.039   5.009
26178SOL    HW183381   8.421   6.090   5.041
26178SOL    HW283382   8.386   5.971   4.953
26179SOL     OW83383   8.503   6.286   4.115
26179SOL    HW183384   8.529   6.262   4.203
26179SOL    HW283385   8.487   6.202   4.071
26180SOL     OW83386   7.537   6.367   4.523
26180SOL    HW183387   7.623   6.370   4.563
26180SOL    HW283388   7.492   6.445   4.554
26181SOL     OW83389   7.627   7.405   5.274
26181SOL    HW183390   7.613   7.395   5.368
26181SOL    HW283391   7.647   7.497   5.262
26182SOL     OW83392   8.771   6.721   4.247
26182SOL    HW183393   8.856   6.741   4.206
26182SOL    HW283394   8.707   6.759   4.187
26183SOL     OW83395   7.977   5.777   4.599
26183SOL    HW183396   8.048   5.717   4.619
26183SOL    HW283397   8.006   5.824   4.521
26184SOL     OW83398   7.798   7.400   4.637
26184SOL    HW183399   7.828   7.310   4.630
26184SOL    HW283400   7.877   7.452   4.650
26185SOL     OW83401   8.673   7.127   5.255
26185SOL    HW183402   8.687   7.066   5.327
26185SOL    HW283403   8.605   7.086   5.202
26186SOL     OW83404   7.736   6.569   3.962
26186SOL    HW183405   7.813   6.593   3.910
26186SOL    HW283406   7.713   6.481   3.932
26187SOL     OW83407   8.935   6.341   4.417
26187SOL    HW183408   8.947   6.300   4.503
26187SOL    HW283409   9.017   6.388   4.401
26188SOL     OW83410   7.909   6.845   5.433
26188SOL    HW183411   7.974   6.898   5.387
26188SOL    HW283412   7.902   6.885   5.520
26189SOL     OW83413   8.575   7.377   3.942
26189SOL    HW183414   8.500   7.333   3.983
26189SOL    HW283415   8.588   7.330   3.859
26190SOL     OW83416   7.646   5.824   5.295
26190SOL    HW183417   7.620   5.914   5.313
26190SOL    HW283418   7.709   5.803   5.364
26191SOL     OW83419   9.139   6.899   3.776
26191SOL    HW183420   9.137   6.990   3.745
26191SOL    HW283421   9.048   6.871   3.773
26192SOL     OW83422   7.912   7.333   4.046
26192SOL    HW183423   7.960   7.393   4.104
26192SOL    HW283424   7.975   7.311   3.977
26193SOL     OW83425   8.822   5.650   4.087
26193SOL    HW183426   8.838   5.638   3.993
26193SOL    HW283427   8.861   5.572   4.128
26194SOL     OW83428   7.764   7.364   4.920
26194SOL    HW183429   7.845   7.380   4.967
26194SOL    HW283430   7.787   7.378   4.828
26195SOL     OW83431   7.803   6.282   4.236
26195SOL    HW183432   7.834   6.253   4.150
26195SOL    HW283433   7.712   6.252   4.240
26196SOL     OW83434   9.025   5.806   5.432
26196SOL    HW183435   8.994   5.877   5.488
26196SOL    HW283436   8.998   5.726   5.477
26197SOL     OW83437   7.993   5.714   3.850
26197SOL    HW183438   8.083   5.711   3.882
26197SOL    HW283439   8.001   5.699   3.756
26198SOL     OW83440   8.146   5.889   5.545
26198SOL    HW183441   8.228   5.838   5.539
26198SOL    HW283442   8.173   5.979   5.526
26199SOL     OW83443   8.772   6.207   5.154
26199SOL    HW183444   8.797   6.181   5.243
26199SOL    HW283445   8.830   6.280   5.133
26200SOL     OW83446   8.341   6.119   4.587
26200SOL    HW183447   8.317   6.101   4.496
26200SOL    HW283448   8.393   6.042   4.613
26201SOL     OW83449   7.981   5.653   4.236
26201SOL    HW183450   7.895   5.675   4.273
26201SOL    HW283451   8.001   5.727   4.178
26202SOL     OW83452   8.894   6.768   3.754
26202SOL    HW183453   8.905   6.702   3.823
26202SOL    HW283454   8.820   6.821   3.783
26203SOL     OW83455   7.737   5.626   3.911
26203SOL    HW183456   7.813   5.675   3.879
26203SOL    HW283457   7.774   5.555   3.963
26204SOL     OW83458   8.371   5.819   4.208
26204SOL    HW183459   8.332   5.813   4.121
26204SOL    HW283460   8.463   5.839   4.192
26205SOL     OW83461   8.503   6.227   5.165
26205SOL    HW183462   8.492   6.173   5.243
26205SOL    HW283463   8.598   6.227   5.149
26206SOL     OW83464   7.905   6.714   4.438
26206SOL    HW183465   7.829   6.697   4.493
26206SOL    HW283466   7.870   6.710   4.348
26207SOL     OW83467   8.702   7.341   4.353
26207SOL    HW183468   8.737   7.427   4.331
26207SOL    HW283469   8.612   7.359   4.380
26208SOL     OW83470   7.564   6.162   5.066
26208SOL    HW183471   7.647   6.121   5.044
26208SOL    HW283472   7.587   6.235   5.124
26209SOL     OW83473   8.260   6.044   4.330
26209SOL    HW183474   8.244   6.086   4.245
26209SOL    HW283475   8.301   5.961   4.309
26210SOL     OW83476   8.479   5.636   4.495
26210SOL    HW183477   8.398   5.623   4.445
26210SOL    HW283478   8.471   5.576   4.569
26211SOL     OW83479   8.919   6.753   4.566
26211SOL    HW183480   8.849   6.691   4.542
26211SOL    HW283481   8.967   6.767   4.485
26212SOL     OW83482   8.927   6.213   4.663
26212SOL    HW183483   8.859   6.146   4.671
26212SOL    HW283484   8.988   6.195   4.734
26213SOL     OW83485   9.274   6.339   4.126
26213SOL    HW183486   9.341   6.293   4.177
26213SOL    HW283487   9.270   6.292   4.043
26214SOL     OW83488   7.999   6.962   3.844
26214SOL    HW183489   7.921   6.940   3.896
26214SOL    HW283490   7.993   6.906   3.767
26215SOL     OW83491   9.174   6.896   4.370
26215SOL    HW183492   9.261   6.928   4.346
26215SOL    HW283493   9.127   6.975   4.399
26216SOL     OW83494   8.851   6.195   3.829
26216SOL    HW183495   8.789   6.144   3.881
26216SOL    HW283496   8.923   6.214   3.890
26217SOL     OW83497   8.045   5.889   4.095
26217SOL    HW183498   8.106   5.834   4.046
26217SOL    HW283499   8.069   5.979   4.073
26218SOL     OW83500   9.172   6.851   5.224
26218SOL    HW183501   9.248   6.794   5.216
26218SOL    HW283502   9.206   6.930   5.265
26219SOL     OW83503   8.485   6.942   5.178
26219SOL    HW183504   8.408   6.888   5.160
26219SOL    HW283505   8.559   6.882   5.166
26220SOL     OW83506   9.051   7.212   5.383
26220SOL    HW183507   9.040   7.254   5.298
26220SOL    HW283508   9.131   7.161   5.374
26221SOL     OW83509   8.546   6.795   4.857
26221SOL    HW183510   8.460   6.805   4.896
26221SOL    HW283511   8.533   6.813   4.764
26222SOL     OW83512   9.108   6.718   4.779
26222SOL    HW183513   9.085   6.784   4.844
26222SOL    HW283514   9.041   6.726   4.711
26223SOL     OW83515   8.449   6.695   5.454
26223SOL    HW183516   8.357   6.722   5.454
26223SOL    HW283517   8.453   6.626   5.388
26224SOL     OW83518   8.127   6.651   4.098
26224SOL    HW183519   8.126   6.631   4.191
26224SOL    HW283520   8.196   6.595   4.062
26225SOL     OW83521   7.810   6.344   4.950
26225SOL    HW183522   7.875   6.411   4.932
26225SOL    HW283523   7.848   6.292   5.021
26226SOL     OW83524   8.731   6.000   4.977
26226SOL    HW183525   8.752   6.065   5.044
26226SOL    HW283526   8.717   6.051   4.897
26227SOL     OW83527   7.585   7.178   5.003
26227SOL    HW183528   7.500   7.216   4.981
26227SOL    HW283529   7.649   7.237   4.965
26228SOL     OW83530   7.842   6.715   4.167
26228SOL    HW183531   7.933   6.707   4.141
26228SOL    HW283532   7.795   6.654   4.111
26229SOL     OW83533   8.027   6.102   4.461
26229SOL    HW183534   8.020   6.198   4.457
26229SOL    HW283535   8.112   6.083   4.422
26230SOL     OW83536   8.719   7.028   4.869
26230SOL    HW183537   8.775   7.045   4.945
26230SOL    HW283538   8.676   6.945   4.890
26231SOL     OW83539   9.025   6.204   4.176
26231SOL    HW183540   8.969   6.242   4.243
26231SOL    HW283541   9.100   6.263   4.170
26232SOL     OW83542   7.950   7.123   4.996
26232SOL    HW183543   7.968   7.174   4.917
26232SOL    HW283544   8.036   7.100   5.029
26233SOL     OW83545   7.913   6.352   5.352
26233SOL    HW183546   7.954   6.389   5.274
26233SOL    HW283547   7.976   6.286   5.383
26234SOL     OW83548   8.373   5.737   5.524
26234SOL    HW183549   8.348   5.700   5.439
26234SOL    HW283550   8.463   5.707   5.538
26235SOL     OW83551   7.916   5.586   5.486
26235SOL    HW183552   7.870   5.537   5.418
26235SOL    HW283553   7.872   5.671   5.489
26236SOL     OW83554   7.920   6.567   4.781
26236SOL    HW183555   8.005   6.540   4.745
26236SOL    HW283556   7.940   6.648   4.830
26237SOL     OW83557   8.768   6.453   4.701
26237SOL    HW183558   8.747   6.474   4.610
26237SOL    HW283559   8.827   6.378   4.695
26238SOL     OW83560   8.683   6.053   3.988
26238SOL    HW183561   8.693   5.992   4.061
26238SOL    HW283562   8.590   6.049   3.966
26239SOL     OW83563   7.632   5.787   5.017
26239SOL    HW183564   7.655   5.799   5.110
26239SOL    HW283565   7.683   5.710   4.990
26240SOL     OW83566   7.463   6.906   5.024
26240SOL    HW183567   7.495   6.844   5.090
26240SOL    HW283568   7.517   6.984   5.037
26241SOL     OW83569   8.123   6.225   4.739
26241SOL    HW183570   8.193   6.186   4.686
26241SOL    HW283571   8.137   6.320   4.730
26242SOL     OW83572   7.719   5.643   4.387
26242SOL    HW183573   7.694   5.733   4.406
26242SOL    HW283574   7.753   5.609   4.470
26243SOL     OW83575   9.087   5.990   4.015
26243SOL    HW183576   9.119   5.921   4.074
26243SOL    HW283577   9.052   6.057   4.073
26244SOL     OW83578   8.432   6.372   4.642
26244SOL    HW183579   8.463   6.378   4.732
26244SOL    HW283580   8.404   6.281   4.631
26245SOL     OW83581   8.374   7.081   5.397
26245SOL    HW183582   8.351   7.163   5.353
26245SOL    HW283583   8.429   7.035   5.333
26246SOL     OW83584   9.288   7.085   5.311
26246SOL    HW183585   9.319   7.095   5.221
26246SOL    HW283586   9.367   7.095   5.365
26247SOL     OW83587   7.784   6.425   5.585
26247SOL    HW183588   7.848   6.471   5.640
26247SOL    HW283589   7.832   6.404   5.505
26248SOL     OW83590   9.033   5.821   3.796
26248SOL    HW183591   8.967   5.763   3.833
26248SOL    HW283592   9.053   5.883   3.866
26249SOL     OW83593   8.729   6.434   3.753
26249SOL    HW183594   8.764   6.346   3.769
26249SOL    HW283595   8.777   6.466   3.677
26250SOL     OW83596   8.486   6.856   4.596
26250SOL    HW183597   8.511   6.772   4.557
26250SOL    HW283598   8.405   6.880   4.552
26251SOL     OW83599   7.790   6.352   4.651
26251SOL    HW183600   7.825   6.425   4.702
26251SOL    HW283601   7.848   6.348   4.574
26252SOL     OW83602   7.868   6.020   4.665
26252SOL    HW183603   7.905   5.933   4.677
26252SOL    HW283604   7.926   6.062   4.602
26253SOL     OW83605   8.520   6.084   5.404
26253SOL    HW183606   8.510   6.086   5.499
26253SOL    HW283607   8.615   6.084   5.391
26254SOL     OW83608   7.437   6.935   3.938
26254SOL    HW183609   7.346   6.950   3.912
26254SOL    HW283610   7.440   6.843   3.965
26255SOL     OW83611   7.523   7.367   4.670
26255SOL    HW183612   7.514   7.280   4.631
26255SOL    HW283613   7.615   7.389   4.660
26256SOL     OW83614   7.903   7.151   4.650
26256SOL    HW183615   7.986   7.181   4.688
26256SOL    HW283616   7.929   7.097   4.576
26257SOL     OW83617   8.485   6.401   4.921
26257SOL    HW183618   8.567   6.448   4.934
26257SOL    HW283619   8.481   6.339   4.994
26258SOL     OW83620   7.675   6.093   5.383
26258SOL    HW183621   7.764   6.071   5.355
26258SOL    HW283622   7.655   6.175   5.338
26259SOL     OW83623   8.843   6.578   5.454
26259SOL    HW183624   8.869   6.625   5.375
26259SOL    HW283625   8.901   6.502   5.457
26260SOL     OW83626   8.212   6.119   4.069
26260SOL    HW183627   8.286   6.076   4.026
26260SOL    HW283628   8.185   6.187   4.007
26261SOL     OW83629   9.101   6.135   4.858
26261SOL    HW183630   9.102   6.079   4.936
26261SOL    HW283631   9.191   6.165   4.848
26262SOL     OW83632   7.570   7.122   5.390
26262SOL    HW183633   7.581   7.190   5.456
26262SOL    HW283634   7.586   7.040   5.436
26263SOL     OW83635   8.084   6.019   4.914
26263SOL    HW183636   8.174   6.009   4.946
26263SOL    HW283637   8.089   6.085   4.846
26264SOL     OW83638   8.247   7.277   5.244
26264SOL    HW183639   8.236   7.216   5.171
26264SOL    HW283640   8.284   7.356   5.203
26265SOL     OW83641   7.880   6.215   3.979
26265SOL    HW183642   7.968   6.251   3.968
26265SOL    HW283643   7.857   6.182   3.892
26266SOL     OW83644   7.516   6.686   5.209
26266SOL    HW183645   7.554   6.645   5.287
26266SOL    HW283646   7.561   6.645   5.135
26267SOL     OW83647   8.710   6.583   4.934
26267SOL    HW183648   8.738   6.543   4.852
26267SOL    HW283649   8.659   6.659   4.907
26268SOL     OW83650   8.744   6.428   4.031
26268SOL    HW183651   8.669   6.381   4.066
26268SOL    HW283652   8.726   6.435   3.937
26269SOL     OW83653   9.248   7.307   4.903
26269SOL    HW183654   9.308   7.340   4.836
26269SOL    HW283655   9.203   7.234   4.861
26270SOL     OW83656   8.644   7.287   4.789
26270SOL    HW183657   8.719   7.341   4.761
26270SOL    HW283658   8.684   7.210   4.829
26271SOL     OW83659   7.446   6.892   4.747
26271SOL    HW183660   7.452   6.892   4.843
26271SOL    HW283661   7.519   6.836   4.720
26272SOL     OW83662   8.118   7.283   5.497
26272SOL    HW183663   8.072   7.367   5.494
26272SOL    HW283664   8.177   7.285   5.421
26273SOL     OW83665   9.200   5.783   4.164
26273SOL    HW183666   9.258   5.773   4.089
26273SOL    HW283667   9.173   5.694   4.186
26274SOL     OW83668   8.881   7.153   4.262
26274SOL    HW183669   8.912   7.178   4.174
26274SOL    HW283670   8.811   7.214   4.282
26275SOL     OW83671   7.605   7.356   5.548
26275SOL    HW183672   7.551   7.304   5.607
26275SOL    HW283673   7.658   7.411   5.606
26276SOL     OW83674   8.733   6.522   4.426
26276SOL    HW183675   8.808   6.465   4.408
26276SOL    HW283676   8.739   6.590   4.359
26277SOL     OW83677   8.244   6.799   5.136
26277SOL    HW183678   8.192   6.840   5.205
26277SOL    HW283679   8.222   6.849   5.057
26278SOL     OW83680   8.094   7.218   3.874
26278SOL    HW183681   8.113   7.250   3.785
26278SOL    HW283682   8.060   7.129   3.861
26279SOL     OW83683   9.054   7.321   5.120
26279SOL    HW183684   9.118   7.327   5.049
26279SOL    HW283685   9.042   7.412   5.149
26280SOL     OW83686   9.298   5.785   4.670
26280SOL    HW183687   9.328   5.695   4.655
26280SOL    HW283688   9.208   5.786   4.638
26281SOL     OW83689   7.674   5.907   4.481
26281SOL    HW183690   7.735   5.923   4.409
26281SOL    HW283691   7.720   5.938   4.559
26282SOL     OW83692   8.615   7.243   3.704
26282SOL    HW183693   8.602   7.156   3.666
26282SOL    HW283694   8.605   7.303   3.631
26283SOL     OW83695   8.266   6.537   5.069
26283SOL    HW183696   8.323   6.525   4.993
26283SOL    HW283697   8.263   6.631   5.082
26284SOL     OW83698   8.320   6.473   4.020
26284SOL    HW183699   8.376   6.516   3.956
26284SOL    HW283700   8.378   6.411   4.065
26285SOL     OW83701   8.851   7.179   3.837
26285SOL    HW183702   8.772   7.215   3.797
26285SOL    HW283703   8.923   7.224   3.793
26286SOL     OW83704   7.778   6.976   5.157
26286SOL    HW183705   7.844   7.007   5.094
26286SOL    HW283706   7.819   6.902   5.201
26287SOL     OW83707   9.053   6.905   4.981
26287SOL    HW183708   9.098   6.875   5.060
26287SOL    HW283709   8.989   6.969   5.012
26288SOL     OW83710   8.431   6.591   4.470
26288SOL    HW183711   8.438   6.516   4.528
26288SOL    HW283712   8.505   6.581   4.409
26289SOL     OW83713   8.495   5.890   4.620
26289SOL    HW183714   8.496   5.811   4.566
26289SOL    HW283715   8.467   5.859   4.706
26290SOL     OW83716   7.966   7.075   4.149
26290SOL    HW183717   8.033   7.062   4.216
26290SOL    HW283718   7.972   7.169   4.128
26291SOL     OW83719   9.213   5.964   5.083
26291SOL    HW183720   9.275   6.037   5.085
26291SOL    HW283721   9.256   5.897   5.030
26292SOL     OW83722   7.769   6.952   4.013
26292SOL    HW183723   7.760   6.872   4.065
26292SOL    HW283724   7.832   7.005   4.062
26293SOL     OW83725   7.569   6.536   5.439
26293SOL    HW183726   7.490   6.544   5.493
26293SOL    HW283727   7.639   6.516   5.501
26294SOL     OW83728   8.061   5.805   5.298
26294SOL    HW183729   8.131   5.741   5.289
26294SOL    HW283730   8.067   5.836   5.388
26295SOL     OW83731   7.498   5.968   3.839
26295SOL    HW183732   7.451   5.956   3.756
26295SOL    HW283733   7.582   6.008   3.813
26296SOL     OW83734   8.908   6.428   5.069
26296SOL    HW183735   8.849   6.488   5.024
26296SOL    HW283736   8.994   6.444   5.029
26297SOL     OW83737   7.505   5.743   4.006
26297SOL    HW183738   7.497   5.821   3.950
26297SOL    HW283739   7.590   5.706   3.982
26298SOL     OW83740   8.698   6.933   3.843
26298SOL    HW183741   8.659   6.899   3.923
26298SOL    HW283742   8.746   7.011   3.871
26299SOL     OW83743   8.039   6.393   5.113
26299SOL    HW183744   8.107   6.457   5.092
26299SOL    HW283745   8.085   6.311   5.125
26300SOL     OW83746   8.890   7.407   4.719
26300SOL    HW183747   8.919   7.495   4.694
26300SOL    HW283748   8.942   7.348   4.664
26301SOL     OW83749   8.250   6.131   5.444
26301SOL    HW183750   8.264   6.209   5.498
26301SOL    HW283751   8.338   6.098   5.426
26302SOL     OW83752   8.918   6.818   5.323
26302SOL    HW183753   8.935   6.828   5.417
26302SOL    HW283754   9.004   6.827   5.282
26303SOL     OW83755   7.894   7.252   5.320
26303SOL    HW183756   7.898   7.341   5.356
26303SOL    HW283757   7.966   7.206   5.363
26304SOL     OW83758   9.156   6.503   4.954
26304SOL    HW183759   9.239   6.476   4.915
26304SOL    HW283760   9.128   6.577   4.900
26305SOL     OW83761   8.663   5.856   4.188
26305SOL    HW183762   8.732   5.797   4.158
26305SOL    HW283763   8.704   5.905   4.259
26306SOL     OW83764   7.964   6.371   4.437
26306SOL    HW183765   8.027   6.437   4.408
26306SOL    HW283766   7.913   6.351   4.359
26307SOL     OW83767   9.251   5.943   5.360
26307SOL    HW183768   9.239   5.948   5.265
26307SOL    HW283769   9.176   5.892   5.391
26308SOL     OW83770   9.226   6.393   5.208
26308SOL    HW183771   9.168   6.434   5.273
26308SOL    HW283772   9.203   6.436   5.126
26309SOL     OW83773   8.042   7.501   4.706
26309SOL    HW183774   8.113   7.534   4.652
26309SOL    HW283775   8.073   7.416   4.738
26310SOL     OW83776   8.183   6.501   4.700
26310SOL    HW183777   8.268   6.469   4.671
26310SOL    HW283778   8.189   6.596   4.692
26311SOL     OW83779   8.481   6.551   3.802
26311SOL    HW183780   8.488   6.630   3.855
26311SOL    HW283781   8.571   6.520   3.791
26312SOL     OW83782   9.396   7.071   4.623
26312SOL    HW183783   9.385   7.059   4.528
26312SOL    HW283784   9.307   7.067   4.658
26313SOL     OW83785   7.637   6.887   5.516
26313SOL    HW183786   7.701   6.841   5.462
26313SOL    HW283787   7.687   6.914   5.593
26314SOL     OW83788   7.542   6.812   4.462
26314SOL    HW183789   7.608   6.775   4.520
26314SOL    HW283790   7.589   6.879   4.411
26315SOL     OW83791   8.108   6.987   5.303
26315SOL    HW183792   8.173   7.012   5.369
26315SOL    HW283793   8.138   7.030   5.223
26316SOL     OW83794   9.314   5.750   4.940
26316SOL    HW183795   9.273   5.664   4.941
26316SOL    HW283796   9.309   5.777   4.848
26317SOL     OW83797   7.871   5.941   4.302
26317SOL    HW183798   7.919   5.923   4.221
26317SOL    HW283799   7.923   6.008   4.346
26318SOL     OW83800   9.158   7.073   4.784
26318SOL    HW183801   9.076   7.064   4.734
26318SOL    HW283802   9.148   7.013   4.858
26319SOL     OW83803   7.830   6.064   5.003
26319SOL    HW183804   7.844   6.048   5.097
26319SOL    HW283805   7.914   6.040   4.963
26320SOL     OW83806   8.859   5.814   4.817
26320SOL    HW183807   8.869   5.721   4.839
26320SOL    HW283808   8.821   5.853   4.895
26321SOL     OW83809   8.757   6.037   4.386
26321SOL    HW183810   8.707   6.117   4.369
26321SOL    HW283811   8.746   6.022   4.480
26322SOL     OW83812   9.032   5.780   4.605
26322SOL    HW183813   8.972   5.805   4.675
26322SOL    HW283814   9.030   5.853   4.544
26323SOL     OW83815   7.468   6.655   4.019
26323SOL    HW183816   7.560   6.655   3.991
26323SOL    HW283817   7.449   6.563   4.039
26324SOL     OW83818   8.325   7.250   4.035
26324SOL    HW183819   8.248   7.259   3.979
26324SOL    HW283820   8.313   7.316   4.103
26325SOL     OW83821   7.633   6.179   5.644
26325SOL    HW183822   7.665   6.269   5.646
26325SOL    HW283823   7.642   6.152   5.552
26326SOL     OW83824   7.684   5.897   6.589
26326SOL    HW183825   7.708   5.878   6.679
26326SOL    HW283826   7.602   5.849   6.575
26327SOL     OW83827   7.441   5.891   6.295
26327SOL    HW183828   7.370   5.953   6.313
26327SOL    HW283829   7.417   5.850   6.213
26328SOL     OW83830   9.054   7.120   6.293
26328SOL    HW183831   8.985   7.111   6.358
26328SOL    HW283832   9.058   7.034   6.250
26329SOL     OW83833   8.573   6.374   6.324
26329SOL    HW183834   8.654   6.424   6.337
26329SOL    HW283835   8.551   6.340   6.411
26330SOL     OW83836   8.215   6.730   6.582
26330SOL    HW183837   8.289   6.742   6.642
26330SOL    HW283838   8.219   6.806   6.525
26331SOL     OW83839   8.212   6.579   6.222
26331SOL    HW183840   8.243   6.558   6.310
26331SOL    HW283841   8.121   6.606   6.234
26332SOL     OW83842   8.096   6.678   7.416
26332SOL    HW183843   8.168   6.737   7.440
26332SOL    HW283844   8.076   6.701   7.325
26333SOL     OW83845   7.834   7.056   6.751
26333SOL    HW183846   7.781   6.983   6.720
26333SOL    HW283847   7.858   7.103   6.672
26334SOL     OW83848   8.909   7.107   6.942
26334SOL    HW183849   8.961   7.178   6.980
26334SOL    HW283850   8.915   7.036   7.005
26335SOL     OW83851   7.938   5.898   7.028
26335SOL    HW183852   7.991   5.976   7.042
26335SOL    HW283853   7.987   5.827   7.071
26336SOL     OW83854   9.116   6.140   6.407
26336SOL    HW183855   9.026   6.162   6.429
26336SOL    HW283856   9.169   6.204   6.455
26337SOL     OW83857   7.654   7.257   6.079
26337SOL    HW183858   7.656   7.331   6.140
26337SOL    HW283859   7.731   7.270   6.023
26338SOL     OW83860   8.496   6.906   7.292
26338SOL    HW183861   8.556   6.882   7.364
26338SOL    HW283862   8.461   6.823   7.261
26339SOL     OW83863   7.673   7.022   6.259
26339SOL    HW183864   7.683   7.095   6.198
26339SOL    HW283865   7.599   7.047   6.314
26340SOL     OW83866   7.704   6.725   6.425
26340SOL    HW183867   7.718   6.637   6.459
26340SOL    HW283868   7.651   6.769   6.491
26341SOL     OW83869   8.014   6.562   5.753
26341SOL    HW183870   8.053   6.595   5.672
26341SOL    HW283871   8.065   6.604   5.823
26342SOL     OW83872   9.002   5.743   7.002
26342SOL    HW183873   9.089   5.761   6.965
26342SOL    HW283874   9.007   5.773   7.092
26343SOL     OW83875   7.576   6.278   6.154
26343SOL    HW183876   7.612   6.194   6.184
26343SOL    HW283877   7.558   6.327   6.234
26344SOL     OW83878   9.331   7.318   5.930
26344SOL    HW183879   9.287   7.319   6.014
26344SOL    HW283880   9.328   7.409   5.899
26345SOL     OW83881   7.470   7.185   5.710
26345SOL    HW183882   7.469   7.091   5.731
26345SOL    HW283883   7.445   7.228   5.792
26346SOL     OW83884   7.604   6.371   7.169
26346SOL    HW183885   7.695   6.396   7.187
26346SOL    HW283886   7.552   6.437   7.215
26347SOL     OW83887   8.014   6.974   6.343
26347SOL    HW183888   8.102   6.960   6.376
26347SOL    HW283889   8.027   7.012   6.256
26348SOL     OW83890   8.784   6.830   6.998
26348SOL    HW183891   8.795   6.756   6.939
26348SOL    HW283892   8.842   6.812   7.071
26349SOL     OW83893   8.272   5.580   6.061
26349SOL    HW183894   8.313   5.664   6.045
26349SOL    HW283895   8.179   5.600   6.071
26350SOL     OW83896   7.690   6.591   6.842
26350SOL    HW183897   7.765   6.649   6.861
26350SOL    HW283898   7.730   6.508   6.818
26351SOL     OW83899   8.543   7.420   7.249
26351SOL    HW183900   8.571   7.469   7.171
26351SOL    HW283901   8.554   7.328   7.225
26352SOL     OW83902   7.781   5.832   7.434
26352SOL    HW183903   7.846   5.896   7.461
26352SOL    HW283904   7.698   5.865   7.469
26353SOL     OW83905   8.831   7.010   6.491
26353SOL    HW183906   8.813   7.023   6.584
26353SOL    HW283907   8.880   6.927   6.488
26354SOL     OW83908   9.142   7.347   6.132
26354SOL    HW183909   9.080   7.326   6.062
26354SOL    HW283910   9.119   7.286   6.203
26355SOL     OW83911   8.011   6.277   5.809
26355SOL    HW183912   8.037   6.365   5.781
26355SOL    HW283913   7.946   6.292   5.878
26356SOL     OW83914   8.734   5.949   6.541
26356SOL    HW183915   8.647   5.909   6.544
26356SOL    HW283916   8.784   5.904   6.609
26357SOL     OW83917   9.036   7.258   5.887
26357SOL    HW183918   9.129   7.244   5.875
26357SOL    HW283919   8.997   7.244   5.801
26358SOL     OW83920   8.104   6.115   7.030
26358SOL    HW183921   8.145   6.196   7.060
26358SOL    HW283922   8.097   6.125   6.935
26359SOL     OW83923   8.851   6.063   7.281
26359SOL    HW183924   8.907   6.140   7.277
26359SOL    HW283925   8.912   5.989   7.291
26360SOL     OW83926   8.454   6.177   6.826
26360SOL    HW183927   8.445   6.236   6.901
26360SOL    HW283928   8.370   6.132   6.819
26361SOL     OW83929   8.470   6.276   6.079
26361SOL    HW183930   8.514   6.251   6.160
26361SOL    HW283931   8.506   6.216   6.013
26362SOL     OW83932   7.505   6.431   6.373
26362SOL    HW183933   7.590   6.428   6.416
26362SOL    HW283934   7.459   6.503   6.416
26363SOL     OW83935   7.524   7.465   7.175
26363SOL    HW183936   7.526   7.442   7.267
26363SOL    HW283937   7.553   7.556   7.171
26364SOL     OW83938   8.343   5.914   5.786
26364SOL    HW183939   8.388   5.988   5.747
26364SOL    HW283940   8.350   5.844   5.721
26365SOL     OW83941   9.072   6.193   7.486
26365SOL    HW183942   9.081   6.286   7.463
26365SOL    HW283943   9.104   6.146   7.409
26366SOL     OW83944   8.850   6.751   6.111
26366SOL    HW183945   8.882   6.661   6.105
26366SOL    HW283946   8.928   6.803   6.128
26367SOL     OW83947   7.984   5.760   6.513
26367SOL    HW183948   7.993   5.777   6.607
26367SOL    HW283949   8.001   5.845   6.472
26368SOL     OW83950   7.782   7.418   6.494
26368SOL    HW183951   7.830   7.335   6.502
26368SOL    HW283952   7.848   7.485   6.509
26369SOL     OW83953   8.559   7.147   7.177
26369SOL    HW183954   8.523   7.066   7.211
26369SOL    HW283955   8.623   7.118   7.111
26370SOL     OW83956   7.765   6.565   5.884
26370SOL    HW183957   7.844   6.581   5.832
26370SOL    HW283958   7.774   6.475   5.915
26371SOL     OW83959   7.815   6.777   7.356
26371SOL    HW183960   7.867   6.754   7.279
26371SOL    HW283961   7.853   6.860   7.387
26372SOL     OW83962   7.630   5.860   7.199
26372SOL    HW183963   7.654   5.951   7.183
26372SOL    HW283964   7.691   5.830   7.266
26373SOL     OW83965   9.108   6.974   5.693
26373SOL    HW183966   9.058   7.053   5.676
26373SOL    HW283967   9.050   6.902   5.667
26374SOL     OW83968   7.864   7.278   5.905
26374SOL    HW183969   7.910   7.338   5.963
26374SOL    HW283970   7.932   7.246   5.845
26375SOL     OW83971   8.856   5.710   6.051
26375SOL    HW183972   8.839   5.670   5.966
26375SOL    HW283973   8.951   5.722   6.054
26376SOL     OW83974   7.624   7.371   6.794
26376SOL    HW183975   7.676   7.379   6.874
26376SOL    HW283976   7.674   7.419   6.728
26377SOL     OW83977   8.375   7.281   6.448
26377SOL    HW183978   8.468   7.260   6.441
26377SOL    HW283979   8.335   7.241   6.371
26378SOL     OW83980   7.803   6.297   5.995
26378SOL    HW183981   7.835   6.212   6.027
26378SOL    HW283982   7.721   6.311   6.041
26379SOL     OW83983   9.036   5.795   7.310
26379SOL    HW183984   8.992   5.810   7.394
26379SOL    HW283985   9.102   5.729   7.329
26380SOL     OW83986   8.024   5.699   5.709
26380SOL    HW183987   8.074   5.769   5.667
26380SOL    HW283988   8.013   5.633   5.641
26381SOL     OW83989   8.185   5.813   7.338
26381SOL    HW183990   8.278   5.798   7.358
26381SOL    HW283991   8.175   5.908   7.340
26382SOL     OW83992   8.249   7.073   6.790
26382SOL    HW183993   8.287   7.100   6.705
26382SOL    HW283994   8.297   7.125   6.854
26383SOL     OW83995   8.793   6.196   7.018
26383SOL    HW183996   8.848   6.178   7.095
26383SOL    HW283997   8.807   6.289   7.000
26384SOL     OW83998   8.281   6.944   6.409
26384SOL    HW183999   8.374   6.925   6.424
26384SOL    HW284000   8.281   7.017   6.347
26385SOL     OW84001   8.353   6.049   6.460
26385SOL    HW184002   8.332   6.034   6.368
26385SOL    HW284003   8.409   5.976   6.484
26386SOL     OW84004   7.998   5.635   6.072
26386SOL    HW184005   7.927   5.626   6.136
26386SOL    HW284006   7.982   5.719   6.030
26387SOL     OW84007   8.908   6.801   5.604
26387SOL    HW184008   8.908   6.710   5.574
26387SOL    HW284009   8.830   6.809   5.658
26388SOL     OW84010   7.761   5.598   5.776
26388SOL    HW184011   7.834   5.651   5.744
26388SOL    HW284012   7.802   5.525   5.822
26389SOL     OW84013   8.394   5.825   6.045
26389SOL    HW184014   8.374   5.859   5.957
26389SOL    HW284015   8.487   5.847   6.058
26390SOL     OW84016   8.636   7.193   6.391
26390SOL    HW184017   8.668   7.262   6.333
26390SOL    HW284018   8.715   7.156   6.431
26391SOL     OW84019   7.955   6.633   6.308
26391SOL    HW184020   7.971   6.621   6.402
26391SOL    HW284021   7.897   6.560   6.284
26392SOL     OW84022   8.729   7.379   6.204
26392SOL    HW184023   8.795   7.449   6.204
26392SOL    HW284024   8.667   7.406   6.136
26393SOL     OW84025   8.460   6.132   5.668
26393SOL    HW184026   8.437   6.223   5.648
26393SOL    HW284027   8.523   6.138   5.740
26394SOL     OW84028   7.537   6.186   6.967
26394SOL    HW184029   7.627   6.157   6.952
26394SOL    HW284030   7.546   6.260   7.028
26395SOL     OW84031   8.017   5.792   6.784
26395SOL    HW184032   8.060   5.711   6.811
26395SOL    HW284033   7.993   5.836   6.865
26396SOL     OW84034   8.238   6.000   6.208
26396SOL    HW184035   8.210   6.052   6.132
26396SOL    HW284036   8.294   5.931   6.170
26397SOL     OW84037   8.478   5.642   6.310
26397SOL    HW184038   8.420   5.652   6.234
26397SOL    HW284039   8.440   5.570   6.359
26398SOL     OW84040   8.948   6.764   6.427
26398SOL    HW184041   9.028   6.736   6.472
26398SOL    HW284042   8.979   6.795   6.342
26399SOL     OW84043   8.858   6.194   6.533
26399SOL    HW184044   8.810   6.112   6.543
26399SOL    HW284045   8.922   6.193   6.604
26400SOL     OW84046   7.854   6.965   5.682
26400SOL    HW184047   7.809   6.968   5.767
26400SOL    HW284048   7.924   7.029   5.690
26401SOL     OW84049   9.097   6.851   6.208
26401SOL    HW184050   9.099   6.764   6.168
26401SOL    HW284051   9.178   6.855   6.259
26402SOL     OW84052   7.935   5.856   5.914
26402SOL    HW184053   7.980   5.795   5.854
26402SOL    HW284054   7.908   5.929   5.858
26403SOL     OW84055   9.220   6.739   7.152
26403SOL    HW184056   9.306   6.738   7.196
26403SOL    HW284057   9.230   6.803   7.082
26404SOL     OW84058   8.528   6.886   6.931
26404SOL    HW184059   8.469   6.851   6.998
26404SOL    HW284060   8.616   6.866   6.964
26405SOL     OW84061   9.082   7.174   7.291
26405SOL    HW184062   9.073   7.223   7.210
26405SOL    HW284063   9.161   7.121   7.279
26406SOL     OW84064   8.471   6.779   6.683
26406SOL    HW184065   8.481   6.824   6.767
26406SOL    HW284066   8.509   6.839   6.619
26407SOL     OW84067   8.377   5.667   6.961
26407SOL    HW184068   8.408   5.651   6.872
26407SOL    HW284069   8.447   5.717   7.002
26408SOL     OW84070   8.186   6.680   5.946
26408SOL    HW184071   8.176   6.678   6.041
26408SOL    HW284072   8.262   6.626   5.929
26409SOL     OW84073   7.922   6.428   6.811
26409SOL    HW184074   7.957   6.467   6.891
26409SOL    HW284075   7.940   6.334   6.820
26410SOL     OW84076   8.670   5.994   6.886
26410SOL    HW184077   8.722   6.059   6.934
26410SOL    HW284078   8.596   6.043   6.851
26411SOL     OW84079   7.560   7.150   6.945
26411SOL    HW184080   7.553   7.218   6.879
26411SOL    HW284081   7.644   7.168   6.989
26412SOL     OW84082   7.772   6.775   6.065
26412SOL    HW184083   7.753   6.851   6.009
26412SOL    HW284084   7.771   6.700   6.004
26413SOL     OW84085   8.038   6.049   6.436
26413SOL    HW184086   8.087   6.033   6.355
26413SOL    HW284087   8.093   6.109   6.486
26414SOL     OW84088   8.700   6.930   5.981
26414SOL    HW184089   8.750   7.006   6.012
26414SOL    HW284090   8.738   6.856   6.028
26415SOL     OW84091   8.721   7.046   6.752
26415SOL    HW184092   8.790   7.067   6.814
26415SOL    HW284093   8.655   7.000   6.804
26416SOL     OW84094   7.919   6.309   7.209
26416SOL    HW184095   7.934   6.381   7.147
26416SOL    HW284096   8.007   6.276   7.228
26417SOL     OW84097   8.979   6.300   7.223
26417SOL    HW184098   8.952   6.382   7.262
26417SOL    HW284099   9.067   6.317   7.188
26418SOL     OW84100   8.450   5.749   7.388
26418SOL    HW184101   8.508   5.819   7.359
26418SOL    HW284102   8.483   5.671   7.342
26419SOL     OW84103   7.925   5.611   7.329
26419SOL    HW184104   7.865   5.567   7.268
26419SOL    HW284105   7.882   5.694   7.349
26420SOL     OW84106   7.981   6.575   6.581
26420SOL    HW184107   8.059   6.630   6.591
26420SOL    HW284108   7.971   6.532   6.666
26421SOL     OW84109   8.753   6.445   6.585
26421SOL    HW184110   8.778   6.492   6.506
26421SOL    HW284111   8.799   6.361   6.578
26422SOL     OW84112   8.610   6.124   5.895
26422SOL    HW184113   8.642   6.043   5.935
26422SOL    HW284114   8.684   6.185   5.900
26423SOL     OW84115   7.705   5.798   6.852
26423SOL    HW184116   7.769   5.837   6.912
26423SOL    HW284117   7.738   5.710   6.837
26424SOL     OW84118   7.472   6.904   6.867
26424SOL    HW184119   7.517   6.847   6.928
26424SOL    HW284120   7.502   6.992   6.889
26425SOL     OW84121   8.203   6.221   6.600
26425SOL    HW184122   8.270   6.168   6.557
26425SOL    HW284123   8.241   6.308   6.608
26426SOL     OW84124   9.083   6.466   7.461
26426SOL    HW184125   9.143   6.531   7.424
26426SOL    HW284126   9.036   6.514   7.530
26427SOL     OW84127   7.766   5.610   6.234
26427SOL    HW184128   7.751   5.704   6.245
26427SOL    HW284129   7.781   5.578   6.323
26428SOL     OW84130   9.083   6.021   6.019
26428SOL    HW184131   9.098   5.928   6.032
26428SOL    HW284132   9.042   6.028   5.933
26429SOL     OW84133   8.496   6.345   6.602
26429SOL    HW184134   8.583   6.384   6.615
26429SOL    HW284135   8.487   6.283   6.674
26430SOL     OW84136   9.318   7.050   7.206
26430SOL    HW184137   9.337   7.018   7.118
26430SOL    HW284138   9.402   7.084   7.237
26431SOL     OW84139   7.779   6.487   7.377
26431SOL    HW184140   7.820   6.571   7.397
26431SOL    HW284141   7.851   6.432   7.347
26432SOL     OW84142   8.743   6.449   5.670
26432SOL    HW184143   8.797   6.374   5.646
26432SOL    HW284144   8.763   6.516   5.605
26433SOL     OW84145   8.561   6.926   6.433
26433SOL    HW184146   8.653   6.908   6.452
26433SOL    HW284147   8.558   7.018   6.410
26434SOL     OW84148   7.755   6.433   6.492
26434SOL    HW184149   7.833   6.472   6.532
26434SOL    HW284150   7.765   6.339   6.509
26435SOL     OW84151   7.778   6.150   6.527
26435SOL    HW184152   7.745   6.063   6.552
26435SOL    HW284153   7.866   6.133   6.494
26436SOL     OW84154   8.595   5.970   7.314
26436SOL    HW184155   8.557   6.031   7.378
26436SOL    HW284156   8.685   5.999   7.303
26437SOL     OW84157   8.585   5.807   7.079
26437SOL    HW184158   8.588   5.865   7.155
26437SOL    HW284159   8.625   5.859   7.009
26438SOL     OW84160   7.453   6.927   5.823
26438SOL    HW184161   7.368   6.934   5.778
26438SOL    HW284162   7.464   6.834   5.839
26439SOL     OW84163   7.510   7.356   6.498
26439SOL    HW184164   7.505   7.276   6.445
26439SOL    HW284165   7.603   7.376   6.501
26440SOL     OW84166   7.916   7.172   6.514
26440SOL    HW184167   7.992   7.229   6.524
26440SOL    HW284168   7.944   7.105   6.451
26441SOL     OW84169   7.516   6.166   6.684
26441SOL    HW184170   7.597   6.172   6.634
26441SOL    HW284171   7.543   6.176   6.775
26442SOL     OW84172   7.709   6.119   7.221
26442SOL    HW184173   7.797   6.156   7.228
26442SOL    HW284174   7.652   6.195   7.208
26443SOL     OW84175   8.842   6.542   7.239
26443SOL    HW184176   8.876   6.631   7.242
26443SOL    HW284177   8.845   6.519   7.146
26444SOL     OW84178   8.180   6.091   5.950
26444SOL    HW184179   8.227   6.034   5.890
26444SOL    HW284180   8.137   6.155   5.893
26445SOL     OW84181   9.063   6.201   6.710
26445SOL    HW184182   9.122   6.130   6.734
26445SOL    HW284183   9.116   6.259   6.655
26446SOL     OW84184   7.643   7.093   7.370
26446SOL    HW184185   7.738   7.083   7.376
26446SOL    HW284186   7.608   7.012   7.408
26447SOL     OW84187   8.029   6.091   6.762
26447SOL    HW184188   8.046   6.000   6.737
26447SOL    HW284189   8.087   6.142   6.706
26448SOL     OW84190   8.337   7.231   6.995
26448SOL    HW184191   8.341   7.326   6.984
26448SOL    HW284192   8.402   7.213   7.063
26449SOL     OW84193   7.869   6.048   5.726
26449SOL    HW184194   7.934   6.116   5.742
26449SOL    HW284195   7.787   6.096   5.712
26450SOL     OW84196   7.603   6.746   7.048
26450SOL    HW184197   7.688   6.785   7.066
26450SOL    HW284198   7.621   6.675   6.987
26451SOL     OW84199   8.713   6.626   6.792
26451SOL    HW184200   8.734   6.568   6.719
26451SOL    HW284201   8.627   6.661   6.771
26452SOL     OW84202   8.757   6.357   5.931
26452SOL    HW184203   8.788   6.423   5.993
26452SOL    HW284204   8.750   6.404   5.848
26453SOL     OW84205   9.182   7.342   6.700
26453SOL    HW184206   9.264   7.341   6.650
26453SOL    HW284207   9.172   7.253   6.731
26454SOL     OW84208   8.680   7.323   6.688
26454SOL    HW184209   8.764   7.352   6.653
26454SOL    HW284210   8.692   7.230   6.707
26455SOL     OW84211   7.530   6.820   6.611
26455SOL    HW184212   7.528   6.826   6.706
26455SOL    HW284213   7.476   6.744   6.590
26456SOL     OW84214   9.149   5.759   6.044
26456SOL    HW184215   9.225   5.744   5.988
26456SOL    HW284216   9.147   5.682   6.102
26457SOL     OW84217   8.819   7.172   6.037
26457SOL    HW184218   8.902   7.199   5.997
26457SOL    HW284219   8.803   7.237   6.105
26458SOL     OW84220   7.556   7.348   7.432
26458SOL    HW184221   7.603   7.268   7.406
26458SOL    HW284222   7.619   7.395   7.488
26459SOL     OW84223   8.796   6.551   6.335
26459SOL    HW184224   8.843   6.521   6.258
26459SOL    HW284225   8.847   6.625   6.368
26460SOL     OW84226   8.047   7.156   5.734
26460SOL    HW184227   8.077   7.203   5.656
26460SOL    HW284228   8.127   7.116   5.769
26461SOL     OW84229   9.085   7.295   7.042
26461SOL    HW184230   9.176   7.285   7.013
26461SOL    HW284231   9.071   7.390   7.043
26462SOL     OW84232   9.301   5.741   6.594
26462SOL    HW184233   9.334   5.659   6.557
26462SOL    HW284234   9.215   5.752   6.555
26463SOL     OW84235   7.719   5.874   6.306
26463SOL    HW184236   7.625   5.892   6.299
26463SOL    HW284237   7.738   5.886   6.400
26464SOL     OW84238   8.647   7.184   5.591
26464SOL    HW184239   8.638   7.101   5.544
26464SOL    HW284240   8.627   7.251   5.526
26465SOL     OW84241   8.400   6.505   5.940
26465SOL    HW184242   8.437   6.529   5.855
26465SOL    HW284243   8.418   6.411   5.948
26466SOL     OW84244   8.937   7.195   5.634
26466SOL    HW184245   8.843   7.194   5.617
26466SOL    HW284246   8.977   7.207   5.548
26467SOL     OW84247   8.550   6.678   6.247
26467SOL    HW184248   8.538   6.763   6.290
26467SOL    HW284249   8.643   6.659   6.260
26468SOL     OW84250   8.492   5.816   6.527
26468SOL    HW184251   8.498   5.762   6.449
26468SOL    HW284252   8.484   5.754   6.599
26469SOL     OW84253   8.003   7.035   6.078
26469SOL    HW184254   7.963   7.046   5.992
26469SOL    HW284255   8.084   7.085   6.074
26470SOL     OW84256   9.276   5.969   7.030
26470SOL    HW184257   9.329   6.038   6.989
26470SOL    HW284258   9.260   5.906   6.960
26471SOL     OW84259   7.704   6.996   5.913
26471SOL    HW184260   7.614   6.981   5.886
26471SOL    HW284261   7.704   7.085   5.948
26472SOL     OW84262   7.523   6.583   7.371
26472SOL    HW184263   7.535   6.675   7.397
26472SOL    HW284264   7.610   6.544   7.382
26473SOL     OW84265   8.133   5.708   7.090
26473SOL    HW184266   8.219   5.701   7.050
26473SOL    HW284267   8.151   5.738   7.180
26474SOL     OW84268   7.535   5.914   5.648
26474SOL    HW184269   7.479   5.921   5.571
26474SOL    HW284270   7.569   6.002   5.661
26475SOL     OW84271   8.846   6.471   6.976
26475SOL    HW184272   8.794   6.520   6.913
26475SOL    HW284273   8.932   6.463   6.935
26476SOL     OW84274   7.518   5.711   5.849
26476SOL    HW184275   7.508   5.780   5.784
26476SOL    HW284276   7.607   5.678   5.836
26477SOL     OW84277   8.672   6.798   5.743
26477SOL    HW184278   8.602   6.734   5.756
26477SOL    HW284279   8.682   6.840   5.829
26478SOL     OW84280   8.017   6.512   7.051
26478SOL    HW184281   8.015   6.601   7.085
26478SOL    HW284282   8.099   6.476   7.084
26479SOL     OW84283   8.931   7.384   6.582
26479SOL    HW184284   8.953   7.461   6.530
26479SOL    HW284285   9.012   7.360   6.627
26480SOL     OW84286   8.155   6.084   7.304
26480SOL    HW184287   8.192   6.169   7.329
26480SOL    HW284288   8.145   6.089   7.209
26481SOL     OW84289   8.955   6.792   7.212
26481SOL    HW184290   8.949   6.816   7.304
26481SOL    HW284291   9.049   6.785   7.194
26482SOL     OW84292   7.738   7.340   7.053
26482SOL    HW184293   7.658   7.376   7.090
26482SOL    HW284294   7.808   7.384   7.101
26483SOL     OW84295   9.094   6.424   6.866
26483SOL    HW184296   9.066   6.339   6.831
26483SOL    HW284297   9.167   6.450   6.810
26484SOL     OW84298   8.658   5.905   6.066
26484SOL    HW184299   8.730   5.842   6.061
26484SOL    HW284300   8.679   5.958   6.143
26485SOL     OW84301   9.156   6.040   7.269
26485SOL    HW184302   9.200   6.031   7.185
26485SOL    HW284303   9.129   5.951   7.291
26486SOL     OW84304   9.193   6.464   7.120
26486SOL    HW184305   9.196   6.559   7.131
26486SOL    HW284306   9.161   6.450   7.031
26487SOL     OW84307   8.242   6.925   5.576
26487SOL    HW184308   8.251   6.946   5.669
26487SOL    HW284309   8.300   6.986   5.532
26488SOL     OW84310   8.114   7.353   6.527
26488SOL    HW184311   8.102   7.447   6.527
26488SOL    HW284312   8.205   7.340   6.501
26489SOL     OW84313   8.322   6.505   6.456
26489SOL    HW184314   8.387   6.457   6.508
26489SOL    HW284315   8.297   6.579   6.512
26490SOL     OW84316   8.499   6.568   5.693
26490SOL    HW184317   8.491   6.622   5.614
26490SOL    HW284318   8.583   6.523   5.683
26491SOL     OW84319   9.314   7.119   6.394
26491SOL    HW184320   9.225   7.131   6.361
26491SOL    HW284321   9.315   7.030   6.429
26492SOL     OW84322   7.589   6.838   7.481
26492SOL    HW184323   7.669   6.813   7.434
26492SOL    HW284324   7.618   6.859   7.569
26493SOL     OW84325   9.240   5.753   6.863
26493SOL    HW184326   9.286   5.677   6.898
26493SOL    HW284327   9.265   5.756   6.771
26494SOL     OW84328   7.833   6.041   6.106
26494SOL    HW184329   7.886   5.984   6.050
26494SOL    HW284330   7.808   5.987   6.180
26495SOL     OW84331   9.132   7.082   6.776
26495SOL    HW184332   9.046   7.090   6.817
26495SOL    HW284333   9.181   7.025   6.835
26496SOL     OW84334   7.786   6.102   6.895
26496SOL    HW184335   7.821   6.051   6.968
26496SOL    HW284336   7.859   6.108   6.834
26497SOL     OW84337   8.876   5.849   6.761
26497SOL    HW184338   8.922   5.801   6.830
26497SOL    HW284339   8.809   5.899   6.807
26498SOL     OW84340   8.471   5.595   6.702
26498SOL    HW184341   8.425   5.537   6.641
26498SOL    HW284342   8.559   5.558   6.708
26499SOL     OW84343   8.242   6.968   5.847
26499SOL    HW184344   8.224   6.883   5.888
26499SOL    HW284345   8.241   7.031   5.919
26500SOL     OW84346   8.783   5.567   5.822
26500SOL    HW184347   8.856   5.506   5.832
26500SOL    HW284348   8.789   5.598   5.732
26501SOL     OW84349   8.709   6.062   6.286
26501SOL    HW184350   8.750   6.146   6.304
26501SOL    HW284351   8.717   6.013   6.368
26502SOL     OW84352   9.037   5.803   6.531
26502SOL    HW184353   8.990   5.828   6.611
26502SOL    HW284354   9.049   5.885   6.483
26503SOL     OW84355   7.491   6.660   5.896
26503SOL    HW184356   7.584   6.649   5.878
26503SOL    HW284357   7.459   6.571   5.913
26504SOL     OW84358   7.638   6.225   7.584
26504SOL    HW184359   7.659   6.285   7.656
26504SOL    HW284360   7.661   6.274   7.505
26505SOL     OW84361   7.665   5.859   8.428
26505SOL    HW184362   7.691   5.833   8.516
26505SOL    HW284363   7.576   5.826   8.418
26506SOL     OW84364   7.387   5.845   8.080
26506SOL    HW184365   7.342   5.911   8.133
26506SOL    HW284366   7.480   5.859   8.098
26507SOL     OW84367   7.972   6.827   8.633
26507SOL    HW184368   7.902   6.881   8.596
26507SOL    HW284369   7.955   6.828   8.728
26508SOL     OW84370   9.045   7.106   8.166
26508SOL    HW184371   8.998   7.089   8.248
26508SOL    HW284372   8.979   7.100   8.098
26509SOL     OW84373   8.614   6.310   8.155
26509SOL    HW184374   8.685   6.374   8.150
26509SOL    HW284375   8.562   6.337   8.231
26510SOL     OW84376   9.239   6.136   7.692
26510SOL    HW184377   9.173   6.159   7.627
26510SOL    HW284378   9.277   6.054   7.661
26511SOL     OW84379   8.157   6.704   8.473
26511SOL    HW184380   8.092   6.735   8.536
26511SOL    HW284381   8.197   6.784   8.438
26512SOL     OW84382   8.319   6.328   9.257
26512SOL    HW184383   8.337   6.387   9.330
26512SOL    HW284384   8.337   6.380   9.179
26513SOL     OW84385   8.181   6.729   9.305
26513SOL    HW184386   8.249   6.783   9.263
26513SOL    HW284387   8.101   6.780   9.296
26514SOL     OW84388   7.778   6.993   8.515
26514SOL    HW184389   7.699   6.968   8.468
26514SOL    HW284390   7.840   7.017   8.446
26515SOL     OW84391   8.908   7.106   8.827
26515SOL    HW184392   8.967   7.181   8.838
26515SOL    HW284393   8.836   7.124   8.888
26516SOL     OW84394   7.882   5.864   8.879
26516SOL    HW184395   7.971   5.862   8.912
26516SOL    HW284396   7.830   5.899   8.951
26517SOL     OW84397   9.087   5.999   8.165
26517SOL    HW184398   9.074   6.040   8.080
26517SOL    HW284399   9.067   6.068   8.228
26518SOL     OW84400   7.685   7.280   7.899
26518SOL    HW184401   7.712   7.344   7.965
26518SOL    HW284402   7.758   7.278   7.837
26519SOL     OW84403   8.661   6.922   9.123
26519SOL    HW184404   8.697   6.937   9.211
26519SOL    HW284405   8.604   6.846   9.134
26520SOL     OW84406   7.631   7.034   8.016
26520SOL    HW184407   7.655   7.117   7.974
26520SOL    HW284408   7.575   7.059   8.089
26521SOL     OW84409   7.723   6.629   8.322
26521SOL    HW184410   7.771   6.563   8.273
26521SOL    HW284411   7.781   6.652   8.394
26522SOL     OW84412   8.008   7.425   8.909
26522SOL    HW184413   7.949   7.447   8.982
26522SOL    HW284414   8.069   7.499   8.905
26523SOL     OW84415   7.989   6.537   7.630
26523SOL    HW184416   8.025   6.588   7.558
26523SOL    HW284417   8.060   6.529   7.693
26524SOL     OW84418   9.017   5.744   8.921
26524SOL    HW184419   9.082   5.809   8.892
26524SOL    HW284420   8.991   5.774   9.008
26525SOL     OW84421   7.617   6.233   7.927
26525SOL    HW184422   7.676   6.163   7.955
26525SOL    HW284423   7.660   6.314   7.956
26526SOL     OW84424   9.284   7.406   7.754
26526SOL    HW184425   9.367   7.389   7.798
26526SOL    HW284426   9.309   7.440   7.668
26527SOL     OW84427   7.379   7.156   7.539
26527SOL    HW184428   7.430   7.127   7.614
26527SOL    HW284429   7.430   7.228   7.501
26528SOL     OW84430   9.147   6.401   8.065
26528SOL    HW184431   9.234   6.394   8.104
26528SOL    HW284432   9.159   6.455   7.987
26529SOL     OW84433   9.096   6.681   7.896
26529SOL    HW184434   9.178   6.677   7.846
26529SOL    HW284435   9.118   6.732   7.974
26530SOL     OW84436   7.641   6.356   9.029
26530SOL    HW184437   7.736   6.353   9.037
26530SOL    HW284438   7.617   6.443   9.061
26531SOL     OW84439   8.050   6.910   8.138
26531SOL    HW184440   8.006   6.957   8.209
26531SOL    HW284441   8.044   6.968   8.062
26532SOL     OW84442   8.689   6.845   8.863
26532SOL    HW184443   8.768   6.792   8.863
26532SOL    HW284444   8.684   6.882   8.951
26533SOL     OW84445   8.265   5.610   8.012
26533SOL    HW184446   8.308   5.683   7.967
26533SOL    HW284447   8.172   5.632   8.010
26534SOL     OW84448   7.635   6.556   8.707
26534SOL    HW184449   7.722   6.517   8.711
26534SOL    HW284450   7.602   6.533   8.621
26535SOL     OW84451   8.947   6.598   7.673
26535SOL    HW184452   8.883   6.537   7.710
26535SOL    HW284453   8.999   6.626   7.747
26536SOL     OW84454   8.740   7.404   9.093
26536SOL    HW184455   8.707   7.476   9.039
26536SOL    HW284456   8.718   7.325   9.044
26537SOL     OW84457   7.789   5.845   9.274
26537SOL    HW184458   7.853   5.907   9.309
26537SOL    HW284459   7.710   5.862   9.325
26538SOL     OW84460   8.911   7.016   8.392
26538SOL    HW184461   8.848   7.024   8.463
26538SOL    HW284462   8.896   6.929   8.355
26539SOL     OW84463   9.075   7.367   8.037
26539SOL    HW184464   9.076   7.316   7.956
26539SOL    HW284465   9.079   7.301   8.106
26540SOL     OW84466   8.005   6.261   7.671
26540SOL    HW184467   8.000   6.348   7.630
26540SOL    HW284468   8.021   6.280   7.763
26541SOL     OW84469   8.773   6.014   8.382
26541SOL    HW184470   8.686   5.974   8.388
26541SOL    HW284471   8.825   5.970   8.449
26542SOL     OW84472   9.046   7.260   7.783
26542SOL    HW184473   9.127   7.308   7.765
26542SOL    HW284474   9.012   7.235   7.696
26543SOL     OW84475   8.222   6.169   8.876
26543SOL    HW184476   8.191   6.149   8.964
26543SOL    HW284477   8.158   6.126   8.818
26544SOL     OW84478   8.850   6.038   9.131
26544SOL    HW184479   8.848   6.094   9.209
26544SOL    HW284480   8.906   5.964   9.155
26545SOL     OW84481   8.386   6.483   9.037
26545SOL    HW184482   8.441   6.427   8.983
26545SOL    HW284483   8.338   6.537   8.974
26546SOL     OW84484   8.419   6.019   8.728
26546SOL    HW184485   8.358   6.064   8.787
26546SOL    HW284486   8.427   6.078   8.653
26547SOL     OW84487   8.546   6.277   7.889
26547SOL    HW184488   8.559   6.283   7.983
26547SOL    HW284489   8.453   6.259   7.879
26548SOL     OW84490   7.523   6.484   8.199
26548SOL    HW184491   7.579   6.467   8.123
26548SOL    HW284492   7.581   6.527   8.262
26549SOL     OW84493   7.538   7.418   9.006
26549SOL    HW184494   7.556   7.396   9.097
26549SOL    HW284495   7.568   7.508   8.996
26550SOL     OW84496   8.363   5.888   7.613
26550SOL    HW184497   8.390   5.976   7.585
26550SOL    HW284498   8.398   5.830   7.546
26551SOL     OW84499   9.121   6.150   9.295
26551SOL    HW184500   9.104   6.228   9.243
26551SOL    HW284501   9.165   6.090   9.234
26552SOL     OW84502   8.831   6.731   7.998
26552SOL    HW184503   8.915   6.728   7.951
26552SOL    HW284504   8.778   6.793   7.947
26553SOL     OW84505   7.999   5.707   8.403
26553SOL    HW184506   8.008   5.728   8.496
26553SOL    HW284507   8.011   5.790   8.357
26554SOL     OW84508   8.434   7.027   7.890
26554SOL    HW184509   8.415   7.100   7.831
26554SOL    HW284510   8.406   7.058   7.976
26555SOL     OW84511   7.812   7.387   8.364
26555SOL    HW184512   7.883   7.322   8.361
26555SOL    HW284513   7.857   7.470   8.381
26556SOL     OW84514   9.167   6.562   8.319
26556SOL    HW184515   9.223   6.624   8.273
26556SOL    HW284516   9.140   6.607   8.399
26557SOL     OW84517   8.679   7.161   8.973
26557SOL    HW184518   8.669   7.088   9.034
26557SOL    HW284519   8.590   7.182   8.946
26558SOL     OW84520   7.716   6.473   7.721
26558SOL    HW184521   7.804   6.496   7.691
26558SOL    HW284522   7.723   6.474   7.817
26559SOL     OW84523   7.851   6.682   9.121
26559SOL    HW184524   7.901   6.697   9.041
26559SOL    HW284525   7.885   6.746   9.184
26560SOL     OW84526   8.600   7.313   7.658
26560SOL    HW184527   8.512   7.291   7.687
26560SOL    HW284528   8.619   7.252   7.587
26561SOL     OW84529   7.626   5.845   9.053
26561SOL    HW184530   7.599   5.936   9.062
26561SOL    HW284531   7.688   5.831   9.125
26562SOL     OW84532   9.094   6.984   7.570
26562SOL    HW184533   9.059   7.069   7.540
26562SOL    HW284534   9.030   6.920   7.538
26563SOL     OW84535   7.917   7.319   7.750
26563SOL    HW184536   7.970   7.370   7.811
26563SOL    HW284537   7.981   7.277   7.692
26564SOL     OW84538   8.824   5.639   7.898
26564SOL    HW184539   8.818   5.634   7.802
26564SOL    HW284540   8.915   5.665   7.915
26565SOL     OW84541   7.725   7.403   8.642
26565SOL    HW184542   7.740   7.319   8.685
26565SOL    HW284543   7.748   7.387   8.551
26566SOL     OW84544   8.366   7.259   8.322
26566SOL    HW184545   8.453   7.220   8.324
26566SOL    HW284546   8.324   7.219   8.246
26567SOL     OW84547   8.994   5.794   9.210
26567SOL    HW184548   8.977   5.820   9.300
26567SOL    HW284549   9.014   5.701   9.215
26568SOL     OW84550   8.064   5.664   7.566
26568SOL    HW184551   8.145   5.711   7.549
26568SOL    HW284552   8.030   5.642   7.479
26569SOL     OW84553   8.148   5.863   9.233
26569SOL    HW184554   8.167   5.769   9.235
26569SOL    HW284555   8.177   5.895   9.319
26570SOL     OW84556   8.289   7.105   8.690
26570SOL    HW184557   8.291   7.092   8.595
26570SOL    HW284558   8.326   7.025   8.727
26571SOL     OW84559   8.764   6.166   8.898
26571SOL    HW184560   8.808   6.134   8.977
26571SOL    HW284561   8.807   6.249   8.879
26572SOL     OW84562   8.244   6.945   8.364
26572SOL    HW184563   8.339   6.944   8.363
26572SOL    HW284564   8.220   6.945   8.271
26573SOL     OW84565   8.365   6.085   8.330
26573SOL    HW184566   8.346   6.065   8.238
26573SOL    HW284567   8.424   6.014   8.357
26574SOL     OW84568   7.994   5.659   7.961
26574SOL    HW184569   7.915   5.657   8.014
26574SOL    HW284570   7.982   5.734   7.902
26575SOL     OW84571   8.906   6.802   7.487
26575SOL    HW184572   8.919   6.728   7.546
26575SOL    HW284573   8.812   6.821   7.494
26576SOL     OW84574   7.727   5.613   7.602
26576SOL    HW184575   7.766   5.687   7.556
26576SOL    HW284576   7.800   5.571   7.648
26577SOL     OW84577   8.386   5.819   7.882
26577SOL    HW184578   8.369   5.844   7.791
26577SOL    HW284579   8.480   5.833   7.894
26578SOL     OW84580   8.510   6.280   8.893
26578SOL    HW184581   8.460   6.212   8.938
26578SOL    HW284582   8.600   6.247   8.893
26579SOL     OW84583   8.624   7.173   8.272
26579SOL    HW184584   8.660   7.218   8.196
26579SOL    HW284585   8.670   7.210   8.347
26580SOL     OW84586   8.693   7.350   8.071
26580SOL    HW184587   8.749   7.412   8.025
26580SOL    HW284588   8.622   7.403   8.107
26581SOL     OW84589   8.489   6.136   7.522
26581SOL    HW184590   8.466   6.228   7.539
26581SOL    HW284591   8.553   6.115   7.590
26582SOL     OW84592   7.552   6.182   8.829
26582SOL    HW184593   7.641   6.160   8.804
26582SOL    HW284594   7.562   6.255   8.891
26583SOL     OW84595   8.032   5.767   8.668
26583SOL    HW184596   8.091   5.715   8.722
26583SOL    HW284597   7.966   5.800   8.729
26584SOL     OW84598   8.315   6.022   8.067
26584SOL    HW184599   8.297   6.092   8.004
26584SOL    HW284600   8.341   5.947   8.014
26585SOL     OW84601   8.479   5.655   8.203
26585SOL    HW184602   8.409   5.655   8.138
26585SOL    HW284603   8.453   5.588   8.266
26586SOL     OW84604   8.928   6.771   8.263
26586SOL    HW184605   8.869   6.756   8.189
26586SOL    HW284606   9.012   6.789   8.223
26587SOL     OW84607   8.975   6.204   8.328
26587SOL    HW184608   8.901   6.145   8.341
26587SOL    HW284609   9.018   6.207   8.413
26588SOL     OW84610   9.304   6.375   7.817
26588SOL    HW184611   9.360   6.334   7.882
26588SOL    HW284612   9.276   6.303   7.760
26589SOL     OW84613   7.920   7.015   7.668
26589SOL    HW184614   7.833   6.981   7.692
26589SOL    HW284615   7.920   7.014   7.572
26590SOL     OW84616   9.156   6.831   8.121
26590SOL    HW184617   9.247   6.805   8.130
26590SOL    HW284618   9.158   6.927   8.124
26591SOL     OW84619   8.805   6.248   7.556
26591SOL    HW184620   8.771   6.172   7.604
26591SOL    HW284621   8.893   6.222   7.529
26592SOL     OW84622   7.942   5.831   7.755
26592SOL    HW184623   7.995   5.787   7.688
26592SOL    HW284624   7.913   5.912   7.712
26593SOL     OW84625   9.177   6.825   8.959
26593SOL    HW184626   9.264   6.792   8.935
26593SOL    HW284627   9.194   6.910   9.000
26594SOL     OW84628   8.418   6.878   8.786
26594SOL    HW184629   8.356   6.877   8.859
26594SOL    HW284630   8.504   6.867   8.827
26595SOL     OW84631   9.026   7.246   9.120
26595SOL    HW184632   9.032   7.281   9.031
26595SOL    HW284633   9.093   7.178   9.123
26596SOL     OW84634   8.583   6.801   8.568
26596SOL    HW184635   8.517   6.825   8.633
26596SOL    HW284636   8.555   6.845   8.488
26597SOL     OW84637   9.021   6.690   8.521
26597SOL    HW184638   9.032   6.761   8.585
26597SOL    HW284639   8.984   6.733   8.444
26598SOL     OW84640   8.441   5.751   8.818
26598SOL    HW184641   8.459   5.710   8.733
26598SOL    HW284642   8.427   5.843   8.796
26599SOL     OW84643   8.489   6.709   9.174
26599SOL    HW184644   8.425   6.779   9.161
26599SOL    HW284645   8.454   6.634   9.125
26600SOL     OW84646   7.877   6.419   8.704
26600SOL    HW184647   7.944   6.429   8.772
26600SOL    HW284648   7.848   6.329   8.712
26601SOL     OW84649   8.705   5.959   8.725
26601SOL    HW184650   8.732   6.028   8.785
26601SOL    HW284651   8.609   5.963   8.725
26602SOL     OW84652   7.526   7.188   8.857
26602SOL    HW184653   7.525   7.270   8.906
26602SOL    HW284654   7.616   7.180   8.824
26603SOL     OW84655   7.896   6.199   8.249
26603SOL    HW184656   7.879   6.288   8.219
26603SOL    HW284657   7.980   6.204   8.294
26604SOL     OW84658   8.689   6.921   7.855
26604SOL    HW184659   8.746   6.995   7.879
26604SOL    HW284660   8.600   6.954   7.867
26605SOL     OW84661   8.750   7.039   8.614
26605SOL    HW184662   8.803   7.061   8.691
26605SOL    HW284663   8.702   6.961   8.639
26606SOL     OW84664   9.086   6.151   7.934
26606SOL    HW184665   9.101   6.239   7.970
26606SOL    HW284666   9.143   6.148   7.857
26607SOL     OW84667   7.773   7.141   8.742
26607SOL    HW184668   7.766   7.087   8.663
26607SOL    HW284669   7.867   7.154   8.754
26608SOL     OW84670   7.915   6.312   9.075
26608SOL    HW184671   7.965   6.365   9.013
26608SOL    HW284672   7.976   6.245   9.105
26609SOL     OW84673   9.064   6.378   9.159
26609SOL    HW184674   8.974   6.411   9.151
26609SOL    HW284675   9.111   6.418   9.086
26610SOL     OW84676   7.882   5.584   9.220
26610SOL    HW184677   7.852   5.577   9.130
26610SOL    HW284678   7.867   5.675   9.244
26611SOL     OW84679   8.116   6.434   8.542
26611SOL    HW184680   8.134   6.526   8.520
26611SOL    HW284681   8.031   6.436   8.585
26612SOL     OW84682   8.809   6.446   8.389
26612SOL    HW184683   8.794   6.508   8.460
26612SOL    HW284684   8.763   6.366   8.417
26613SOL     OW84685   8.659   6.083   7.727
26613SOL    HW184686   8.677   6.003   7.776
26613SOL    HW284687   8.628   6.145   7.792
26614SOL     OW84688   7.693   5.776   8.692
26614SOL    HW184689   7.746   5.818   8.760
26614SOL    HW284690   7.720   5.684   8.695
26615SOL     OW84691   7.483   6.955   8.709
26615SOL    HW184692   7.508   6.880   8.763
26615SOL    HW284693   7.495   7.031   8.766
26616SOL     OW84694   8.121   6.178   8.435
26616SOL    HW184695   8.207   6.152   8.400
26616SOL    HW284696   8.133   6.268   8.464
26617SOL     OW84697   9.215   6.550   9.323
26617SOL    HW184698   9.164   6.484   9.276
26617SOL    HW284699   9.155   6.583   9.390
26618SOL     OW84700   7.746   5.630   8.085
26618SOL    HW184701   7.706   5.716   8.098
26618SOL    HW284702   7.758   5.595   8.174
26619SOL     OW84703   8.955   5.932   7.817
26619SOL    HW184704   9.002   5.864   7.866
26619SOL    HW284705   8.982   6.014   7.858
26620SOL     OW84706   8.438   6.348   8.369
26620SOL    HW184707   8.437   6.352   8.465
26620SOL    HW284708   8.415   6.258   8.348
26621SOL     OW84709   8.465   7.149   9.181
26621SOL    HW184710   8.436   7.189   9.100
26621SOL    HW284711   8.423   7.063   9.182
26622SOL     OW84712   9.257   7.083   9.041
26622SOL    HW184713   9.286   7.112   8.954
26622SOL    HW284714   9.335   7.091   9.096
26623SOL     OW84715   7.807   6.421   9.305
26623SOL    HW184716   7.845   6.508   9.318
26623SOL    HW284717   7.852   6.386   9.228
26624SOL     OW84718   8.921   5.838   7.556
26624SOL    HW184719   8.873   5.762   7.589
26624SOL    HW284720   8.941   5.890   7.634
26625SOL     OW84721   8.512   6.928   8.330
26625SOL    HW184722   8.513   6.872   8.252
26625SOL    HW284723   8.564   7.005   8.305
26626SOL     OW84724   7.735   6.123   8.458
26626SOL    HW184725   7.719   6.030   8.437
26626SOL    HW284726   7.788   6.155   8.385
26627SOL     OW84727   8.584   5.960   9.114
26627SOL    HW184728   8.540   6.010   9.183
26627SOL    HW284729   8.672   5.997   9.109
26628SOL     OW84730   7.391   6.900   7.708
26628SOL    HW184731   7.317   6.903   7.648
26628SOL    HW284732   7.417   6.807   7.711
26629SOL     OW84733   7.532   7.350   8.344
26629SOL    HW184734   7.514   7.268   8.299
26629SOL    HW284735   7.627   7.353   8.351
26630SOL     OW84736   7.993   7.068   8.362
26630SOL    HW184737   8.024   7.158   8.361
26630SOL    HW284738   8.067   7.017   8.396
26631SOL     OW84739   8.396   6.311   8.639
26631SOL    HW184740   8.440   6.310   8.724
26631SOL    HW284741   8.309   6.345   8.657
26632SOL     OW84742   7.483   6.178   8.560
26632SOL    HW184743   7.564   6.168   8.512
26632SOL    HW284744   7.510   6.185   8.652
26633SOL     OW84745   7.606   6.107   9.137
26633SOL    HW184746   7.644   6.128   9.222
26633SOL    HW284747   7.623   6.185   9.084
26634SOL     OW84748   8.824   6.495   9.087
26634SOL    HW184749   8.849   6.587   9.080
26634SOL    HW284750   8.818   6.464   8.997
26635SOL     OW84751   8.279   6.202   7.857
26635SOL    HW184752   8.253   6.175   7.769
26635SOL    HW284753   8.212   6.265   7.884
26636SOL     OW84754   9.098   6.217   8.571
26636SOL    HW184755   9.075   6.157   8.641
26636SOL    HW284756   9.193   6.208   8.563
26637SOL     OW84757   7.678   7.122   9.132
26637SOL    HW184758   7.665   7.198   9.189
26637SOL    HW284759   7.686   7.048   9.192
26638SOL     OW84760   8.061   6.056   8.678
26638SOL    HW184761   8.074   5.962   8.666
26638SOL    HW284762   8.080   6.094   8.593
26639SOL     OW84763   8.419   7.244   8.906
26639SOL    HW184764   8.377   7.200   8.832
26639SOL    HW284765   8.411   7.337   8.886
26640SOL     OW84766   7.861   6.046   7.597
26640SOL    HW184767   7.931   6.109   7.613
26640SOL    HW284768   7.781   6.098   7.600
26641SOL     OW84769   7.553   6.740   8.891
26641SOL    HW184770   7.568   6.696   8.975
26641SOL    HW284771   7.579   6.675   8.826
26642SOL     OW84772   8.765   6.598   8.617
26642SOL    HW184773   8.847   6.647   8.613
26642SOL    HW284774   8.697   6.666   8.609
26643SOL     OW84775   8.774   6.404   7.786
26643SOL    HW184776   8.688   6.373   7.814
26643SOL    HW284777   8.793   6.355   7.706
26644SOL     OW84778   9.208   7.346   8.603
26644SOL    HW184779   9.280   7.356   8.540
26644SOL    HW284780   9.181   7.255   8.594
26645SOL     OW84781   8.715   7.295   8.502
26645SOL    HW184782   8.801   7.336   8.492
26645SOL    HW284783   8.732   7.215   8.552
26646SOL     OW84784   7.520   6.928   8.433
26646SOL    HW184785   7.506   6.934   8.527
26646SOL    HW284786   7.489   6.841   8.409
26647SOL     OW84787   9.089   5.712   7.935
26647SOL    HW184788   9.161   5.740   7.878
26647SOL    HW284789   9.120   5.631   7.975
26648SOL     OW84790   8.850   7.137   7.955
26648SOL    HW184791   8.908   7.176   7.890
26648SOL    HW284792   8.794   7.209   7.984
26649SOL     OW84793   7.629   7.363   9.274
26649SOL    HW184794   7.567   7.303   9.315
26649SOL    HW284795   7.668   7.411   9.347
26650SOL     OW84796   8.833   6.465   8.061
26650SOL    HW184797   8.828   6.425   7.975
26650SOL    HW284798   8.824   6.559   8.044
26651SOL     OW84799   8.119   7.192   7.595
26651SOL    HW184800   8.135   7.167   7.504
26651SOL    HW284801   8.065   7.121   7.630
26652SOL     OW84802   9.067   7.335   8.856
26652SOL    HW184803   9.123   7.334   8.779
26652SOL    HW284804   9.042   7.427   8.867
26653SOL     OW84805   9.289   5.736   8.382
26653SOL    HW184806   9.319   5.646   8.364
26653SOL    HW284807   9.201   5.740   8.345
26654SOL     OW84808   7.651   5.880   8.148
26654SOL    HW184809   7.706   5.945   8.104
26654SOL    HW284810   7.671   5.890   8.241
26655SOL     OW84811   8.678   7.129   7.461
26655SOL    HW184812   8.661   7.037   7.482
26655SOL    HW284813   8.638   7.142   7.375
26656SOL     OW84814   8.246   6.640   8.859
26656SOL    HW184815   8.292   6.675   8.782
26656SOL    HW284816   8.223   6.718   8.910
26657SOL     OW84817   8.462   6.419   7.578
26657SOL    HW184818   8.468   6.502   7.532
26657SOL    HW284819   8.402   6.437   7.651
26658SOL     OW84820   8.939   7.225   7.520
26658SOL    HW184821   8.852   7.192   7.498
26658SOL    HW284822   8.988   7.222   7.438
26659SOL     OW84823   7.805   6.880   8.863
26659SOL    HW184824   7.774   6.968   8.840
26659SOL    HW284825   7.725   6.833   8.887
26660SOL     OW84826   9.020   6.873   8.727
26660SOL    HW184827   9.082   6.848   8.795
26660SOL    HW284828   8.978   6.952   8.760
26661SOL     OW84829   8.464   6.747   8.126
26661SOL    HW184830   8.426   6.676   8.178
26661SOL    HW284831   8.525   6.702   8.067
26662SOL     OW84832   8.532   5.865   8.388
26662SOL    HW184833   8.527   5.807   8.312
26662SOL    HW284834   8.522   5.806   8.464
26663SOL     OW84835   8.073   7.052   7.905
26663SOL    HW184836   8.129   6.985   7.866
26663SOL    HW284837   8.003   7.066   7.840
26664SOL     OW84838   9.222   5.926   8.858
26664SOL    HW184839   9.280   6.001   8.842
26664SOL    HW284840   9.230   5.873   8.779
26665SOL     OW84841   7.659   6.938   7.748
26665SOL    HW184842   7.564   6.936   7.740
26665SOL    HW284843   7.675   6.953   7.841
26666SOL     OW84844   7.590   6.613   9.136
26666SOL    HW184845   7.557   6.637   9.223
26666SOL    HW284846   7.683   6.636   9.138
26667SOL     OW84847   8.145   5.834   8.958
26667SOL    HW184848   8.211   5.764   8.953
26667SOL    HW284849   8.144   5.859   9.051
26668SOL     OW84850   7.547   5.951   7.530
26668SOL    HW184851   7.491   5.959   7.454
26668SOL    HW284852   7.577   6.041   7.547
26669SOL     OW84853   8.843   6.420   8.822
26669SOL    HW184854   8.792   6.473   8.760
26669SOL    HW284855   8.934   6.434   8.795
26670SOL     OW84856   7.482   5.713   7.696
26670SOL    HW184857   7.481   5.802   7.660
26670SOL    HW284858   7.570   5.681   7.677
26671SOL     OW84859   8.634   6.848   7.532
26671SOL    HW184860   8.594   6.766   7.504
26671SOL    HW284861   8.628   6.846   7.627
26672SOL     OW84862   8.083   6.420   8.885
26672SOL    HW184863   8.134   6.501   8.881
26672SOL    HW284864   8.148   6.350   8.884
26673SOL     OW84865   8.964   7.407   8.462
26673SOL    HW184866   8.990   7.481   8.407
26673SOL    HW284867   9.044   7.383   8.509
26674SOL     OW84868   8.133   6.145   9.140
26674SOL    HW184869   8.191   6.201   9.192
26674SOL    HW284870   8.138   6.060   9.183
26675SOL     OW84871   8.921   6.749   9.045
26675SOL    HW184872   8.912   6.776   9.136
26675SOL    HW284873   9.008   6.777   9.019
26676SOL     OW84874   9.081   6.473   8.691
26676SOL    HW184875   9.099   6.395   8.640
26676SOL    HW284876   9.073   6.543   8.627
26677SOL     OW84877   8.653   5.870   7.913
26677SOL    HW184878   8.723   5.805   7.911
26677SOL    HW284879   8.676   5.930   7.984
26678SOL     OW84880   9.220   5.942   9.138
26678SOL    HW184881   9.223   5.942   9.043
26678SOL    HW284882   9.146   5.885   9.159
26679SOL     OW84883   9.164   6.519   8.952
26679SOL    HW184884   9.174   6.614   8.960
26679SOL    HW284885   9.151   6.504   8.858
26680SOL     OW84886   8.270   6.890   7.500
26680SOL    HW184887   8.210   6.949   7.455
26680SOL    HW284888   8.345   6.882   7.440
26681SOL     OW84889   8.093   7.322   8.371
26681SOL    HW184890   8.080   7.415   8.386
26681SOL    HW284891   8.188   7.311   8.367
26682SOL     OW84892   8.302   6.571   8.262
26682SOL    HW184893   8.346   6.491   8.294
26682SOL    HW284894   8.254   6.603   8.338
26683SOL     OW84895   9.316   7.111   8.256
26683SOL    HW184896   9.222   7.115   8.237
26683SOL    HW284897   9.325   7.035   8.314
26684SOL     OW84898   7.688   6.917   9.329
26684SOL    HW184899   7.670   6.918   9.423
26684SOL    HW284900   7.782   6.935   9.323
26685SOL     OW84901   7.519   6.796   8.125
26685SOL    HW184902   7.580   6.743   8.177
26685SOL    HW284903   7.576   6.858   8.078
26686SOL     OW84904   9.199   5.747   8.644
26686SOL    HW184905   9.201   5.651   8.647
26686SOL    HW284906   9.240   5.769   8.561
26687SOL     OW84907   7.819   6.060   8.024
26687SOL    HW184908   7.890   6.060   7.959
26687SOL    HW284909   7.852   6.113   8.096
26688SOL     OW84910   9.125   7.095   8.555
26688SOL    HW184911   9.054   7.068   8.497
26688SOL    HW284912   9.148   7.016   8.604
26689SOL     OW84913   7.803   6.151   8.722
26689SOL    HW184914   7.888   6.109   8.732
26689SOL    HW284915   7.782   6.141   8.629
26690SOL     OW84916   8.262   7.181   8.075
26690SOL    HW184917   8.274   7.268   8.036
26690SOL    HW284918   8.192   7.141   8.023
26691SOL     OW84919   8.919   5.872   8.569
26691SOL    HW184920   8.986   5.826   8.620
26691SOL    HW284921   8.848   5.889   8.632
26692SOL     OW84922   8.492   5.641   8.566
26692SOL    HW184923   8.429   5.585   8.522
26692SOL    HW284924   8.576   5.595   8.558
26693SOL     OW84925   8.232   6.850   7.802
26693SOL    HW184926   8.231   6.844   7.707
26693SOL    HW284927   8.315   6.893   7.822
26694SOL     OW84928   8.037   7.188   8.779
26694SOL    HW184929   8.051   7.281   8.797
26694SOL    HW284930   8.122   7.156   8.750
26695SOL     OW84931   8.780   5.605   7.625
26695SOL    HW184932   8.835   5.537   7.586
26695SOL    HW284933   8.708   5.617   7.563
26696SOL     OW84934   8.707   6.049   8.112
26696SOL    HW184935   8.670   6.137   8.121
26696SOL    HW284936   8.742   6.029   8.199
26697SOL     OW84937   9.020   5.770   8.324
26697SOL    HW184938   8.981   5.815   8.398
26697SOL    HW284939   9.032   5.838   8.257
26698SOL     OW84940   7.466   6.635   7.734
26698SOL    HW184941   7.557   6.624   7.706
26698SOL    HW284942   7.445   6.554   7.780
26699SOL     OW84943   8.344   7.246   7.752
26699SOL    HW184944   8.271   7.230   7.691
26699SOL    HW284945   8.313   7.317   7.808
26700SOL     OW84946   7.657   6.211   9.390
26700SOL    HW184947   7.606   6.247   9.463
26700SOL    HW284948   7.711   6.283   9.360
26701SOL     OW84949   9.190   6.197   9.551
26701SOL    HW184950   9.170   6.188   9.458
26701SOL    HW284951   9.165   6.112   9.589
26702SOL     OW84952   7.661   7.347   9.756
26702SOL    HW184953   7.675   7.416   9.821
26702SOL    HW284954   7.747   7.332   9.718
26703SOL     OW84955   7.596   7.099   9.861
26703SOL    HW184956   7.621   7.187   9.833
26703SOL    HW284957   7.557   7.111   9.947
26704SOL     OW84958   8.045   6.565   9.485
26704SOL    HW184959   8.092   6.606   9.413
26704SOL    HW284960   8.086   6.600   9.564
26705SOL     OW84961   7.563   6.301   9.858
26705SOL    HW184962   7.472   6.271   9.859
26705SOL    HW284963   7.568   6.361   9.933
26706SOL     OW84964   9.281   7.337   9.639
26706SOL    HW184965   9.357   7.318   9.695
26706SOL    HW284966   9.296   7.426   9.608
26707SOL     OW84967   7.468   7.173   9.389
26707SOL    HW184968   7.472   7.082   9.418
26707SOL    HW284969   7.444   7.222   9.468
26708SOL     OW84970   9.142   6.497   9.923
26708SOL    HW184971   9.221   6.544   9.949
26708SOL    HW284972   9.096   6.557   9.865
26709SOL     OW84973   9.111   6.714   9.747
26709SOL    HW184974   9.202   6.701   9.717
26709SOL    HW284975   9.118   6.779   9.816
26710SOL     OW84976   8.141   6.955   0.001
26710SOL    HW184977   8.085   6.880   0.022
26710SOL    HW284978   8.098   6.997   9.926
26711SOL     OW84979   8.260   5.603   9.841
26711SOL    HW184980   8.313   5.679   9.818
26711SOL    HW284981   8.169   5.632   9.831
26712SOL     OW84982   9.014   6.619   9.506
26712SOL    HW184983   8.956   6.549   9.535
26712SOL    HW284984   9.042   6.662   9.587
26713SOL     OW84985   8.016   6.284   9.548
26713SOL    HW184986   8.036   6.373   9.521
26713SOL    HW284987   7.951   6.293   9.617
26714SOL     OW84988   9.039   7.281   9.432
26714SOL    HW184989   9.063   7.311   9.520
26714SOL    HW284990   9.116   7.233   9.402
26715SOL     OW84991   8.452   6.235   9.715
26715SOL    HW184992   8.477   6.247   9.806
26715SOL    HW284993   8.365   6.196   9.718
26716SOL     OW84994   7.545   6.421   0.108
26716SOL    HW184995   7.625   6.461   0.141
26716SOL    HW284996   7.476   6.448   0.169
26717SOL     OW84997   8.270   5.956   9.465
26717SOL    HW184998   8.338   6.006   9.419
26717SOL    HW284999   8.314   5.876   9.494
26718SOL     OW85000   8.758   6.683   9.726
26718SOL    HW185001   8.792   6.688   9.815
26718SOL    HW285002   8.731   6.772   9.706
26719SOL     OW85003   8.431   7.013   9.781
26719SOL    HW185004   8.411   7.104   9.757
26719SOL    HW285005   8.435   7.015   9.877
26720SOL     OW85006   7.850   7.414   0.142
26720SOL    HW185007   7.883   7.324   0.141
26720SOL    HW285008   7.929   7.468   0.151
26721SOL     OW85009   7.782   6.575   9.572
26721SOL    HW185010   7.872   6.588   9.544
26721SOL    HW285011   7.761   6.486   9.544
26722SOL     OW85012   8.567   7.356   9.531
26722SOL    HW185013   8.492   7.322   9.579
26722SOL    HW285014   8.600   7.281   9.482
26723SOL     OW85015   9.072   6.964   9.443
26723SOL    HW185016   9.013   7.018   9.495
26723SOL    HW285017   9.014   6.909   9.390
26724SOL     OW85018   7.921   7.323   9.644
26724SOL    HW185019   7.986   7.364   9.702
26724SOL    HW285020   7.973   7.267   9.586
26725SOL     OW85021   8.761   5.658   9.614
26725SOL    HW185022   8.684   5.622   9.571
26725SOL    HW285023   8.826   5.588   9.610
26726SOL     OW85024   7.826   6.265   9.747
26726SOL    HW185025   7.855   6.182   9.786
26726SOL    HW285026   7.739   6.279   9.784
26727SOL     OW85027   8.143   5.649   9.496
26727SOL    HW185028   8.230   5.674   9.526
26727SOL    HW285029   8.157   5.617   9.406
26728SOL     OW85030   7.990   5.688   9.817
26728SOL    HW185031   7.904   5.682   9.859
26728SOL    HW285032   7.978   5.751   9.746
26729SOL     OW85033   8.895   6.788   9.321
26729SOL    HW185034   8.931   6.722   9.379
26729SOL    HW285035   8.810   6.810   9.359
26730SOL     OW85036   7.752   5.636   9.518
26730SOL    HW185037   7.811   5.711   9.530
26730SOL    HW285038   7.804   5.560   9.544
26731SOL     OW85039   8.415   5.820   9.772
26731SOL    HW185040   8.409   5.787   9.682
26731SOL    HW285041   8.502   5.860   9.776
26732SOL     OW85042   7.928   6.759   0.018
26732SOL    HW185043   7.900   6.835   0.069
26732SOL    HW285044   7.865   6.755   9.946
26733SOL     OW85045   8.677   7.427   9.862
26733SOL    HW185046   8.640   7.504   9.818
26733SOL    HW285047   8.740   7.463   9.925
26734SOL     OW85048   8.466   6.098   9.325
26734SOL    HW185049   8.427   6.184   9.308
26734SOL    HW285050   8.528   6.113   9.396
26735SOL     OW85051   8.220   5.961   9.910
26735SOL    HW185052   8.212   6.036   9.851
26735SOL    HW285053   8.291   5.909   9.871
26736SOL     OW85054   9.407   6.366   9.583
26736SOL    HW185055   9.416   6.353   9.677
26736SOL    HW285056   9.325   6.322   9.560
26737SOL     OW85057   8.829   6.173   9.369
26737SOL    HW185058   8.772   6.149   9.442
26737SOL    HW285059   8.917   6.173   9.406
26738SOL     OW85060   7.945   5.821   9.575
26738SOL    HW185061   8.022   5.778   9.538
26738SOL    HW285062   7.945   5.908   9.534
26739SOL     OW85063   8.180   6.669   9.704
26739SOL    HW185064   8.193   6.683   9.798
26739SOL    HW285065   8.245   6.604   9.681
26740SOL     OW85066   7.744   6.724   9.806
26740SOL    HW185067   7.725   6.804   9.757
26740SOL    HW285068   7.767   6.660   9.740
26741SOL     OW85069   8.679   6.950   9.677
26741SOL    HW185070   8.730   7.027   9.702
26741SOL    HW285071   8.594   6.962   9.720
26742SOL     OW85072   9.118   6.241   9.819
26742SOL    HW185073   9.109   6.323   9.868
26742SOL    HW285074   9.125   6.268   9.727
26743SOL     OW85075   8.630   6.107   9.551
26743SOL    HW185076   8.648   6.032   9.608
26743SOL    HW285077   8.579   6.167   9.605
26744SOL     OW85078   7.733   5.660   9.937
26744SOL    HW185079   7.686   5.740   9.959
26744SOL    HW285080   7.755   5.620   0.022
26745SOL     OW85081   9.047   5.990   9.712
26745SOL    HW185082   9.059   5.927   9.784
26745SOL    HW285083   9.053   6.076   9.754
26746SOL     OW85084   8.944   5.842   9.478
26746SOL    HW185085   8.882   5.785   9.524
26746SOL    HW285086   8.982   5.897   9.546
26747SOL     OW85087   8.719   6.423   9.332
26747SOL    HW185088   8.759   6.336   9.339
26747SOL    HW285089   8.750   6.457   9.248
26748SOL     OW85090   7.430   6.910   9.490
26748SOL    HW185091   7.349   6.911   9.438
26748SOL    HW285092   7.452   6.818   9.498
26749SOL     OW85093   8.200   6.118   9.680
26749SOL    HW185094   8.220   6.058   9.608
26749SOL    HW285095   8.142   6.184   9.641
26750SOL     OW85096   7.896   6.059   9.430
26750SOL    HW185097   7.958   6.126   9.460
26750SOL    HW285098   7.811   6.104   9.428
26751SOL     OW85099   8.820   6.448   9.597
26751SOL    HW185100   8.788   6.520   9.651
26751SOL    HW285101   8.763   6.447   9.521
26752SOL     OW85102   8.800   7.192   9.745
26752SOL    HW185103   8.853   7.181   9.824
26752SOL    HW285104   8.740   7.263   9.765
26753SOL     OW85105   8.080   7.147   9.501
26753SOL    HW185106   8.128   7.067   9.524
26753SOL    HW285107   8.021   7.121   9.431
26754SOL     OW85108   8.693   7.178   9.332
26754SOL    HW185109   8.693   7.091   9.370
26754SOL    HW285110   8.614   7.180   9.277
26755SOL     OW85111   8.349   6.477   9.623
26755SOL    HW185112   8.395   6.503   9.543
26755SOL    HW285113   8.397   6.400   9.655
26756SOL     OW85114   8.015   7.058   9.786
26756SOL    HW185115   8.075   7.020   9.722
26756SOL    HW285116   7.951   7.106   9.732
26757SOL     OW85117   7.648   6.932   9.654
26757SOL    HW185118   7.564   6.937   9.610
26757SOL    HW285119   7.639   6.991   9.729
26758SOL     OW85120   7.528   5.930   9.371
26758SOL    HW185121   7.476   5.941   9.291
26758SOL    HW285122   7.543   6.019   9.402
26759SOL     OW85123   7.497   5.731   9.564
26759SOL    HW185124   7.493   5.802   9.500
26759SOL    HW285125   7.589   5.704   9.564
26760SOL     OW85126   8.658   6.908   9.410
26760SOL    HW185127   8.571   6.869   9.399
26760SOL    HW285128   8.668   6.917   9.505
26761SOL     OW85129   8.681   5.898   9.731
26761SOL    HW185130   8.714   5.818   9.690
26761SOL    HW285131   8.749   5.922   9.794
26762SOL     OW85132   7.958   6.326   0.004
26762SOL    HW185133   7.986   6.410   0.042
26762SOL    HW285134   7.950   6.343   9.911
26763SOL     OW85135   8.475   6.528   9.387
26763SOL    HW185136   8.471   6.603   9.327
26763SOL    HW285137   8.562   6.491   9.373
26764SOL     OW85138   7.489   6.727   9.924
26764SOL    HW185139   7.491   6.793   9.994
26764SOL    HW285140   7.579   6.723   9.892
26765SOL     OW85141   7.921   6.033   9.870
26765SOL    HW185142   8.009   5.999   9.849
26765SOL    HW285143   7.923   6.047   9.965
26766SOL     OW85144   8.209   6.937   9.627
26766SOL    HW185145   8.196   6.843   9.633
26766SOL    HW285146   8.291   6.954   9.672
26767SOL     OW85147   7.512   6.645   9.532
26767SOL    HW185148   7.605   6.663   9.546
26767SOL    HW285149   7.505   6.550   9.538
26768SOL     OW85150   8.334   7.248   9.653
26768SOL    HW185151   8.263   7.220   9.595
26768SOL    HW285152   8.297   7.321   9.702
26769SOL     OW85153   7.605   8.029   0.133
26769SOL    HW185154   7.521   8.022   0.178
26769SOL    HW285155   7.620   8.124   0.125
26770SOL     OW85156   7.677   7.738   1.015
26770SOL    HW185157   7.671   7.697   1.101
26770SOL    HW285158   7.586   7.749   0.987
26771SOL     OW85159   8.004   8.721   1.196
26771SOL    HW185160   7.933   8.755   1.142
26771SOL    HW285161   8.024   8.792   1.257
26772SOL     OW85162   9.023   8.907   0.716
26772SOL    HW185163   8.977   8.892   0.798
26772SOL    HW285164   8.954   8.935   0.655
26773SOL     OW85165   8.580   8.140   0.675
26773SOL    HW185166   8.621   8.225   0.657
26773SOL    HW285167   8.534   8.152   0.758
26774SOL     OW85168   9.224   8.022   0.194
26774SOL    HW185169   9.147   8.050   0.146
26774SOL    HW285170   9.194   7.947   0.247
26775SOL     OW85171   8.189   8.558   1.083
26775SOL    HW185172   8.117   8.602   1.128
26775SOL    HW285173   8.240   8.630   1.043
26776SOL     OW85174   8.340   8.179   1.809
26776SOL    HW185175   8.375   8.238   1.876
26776SOL    HW285176   8.336   8.233   1.730
26777SOL     OW85177   8.115   8.410   0.653
26777SOL    HW185178   8.183   8.415   0.720
26777SOL    HW285179   8.052   8.477   0.679
26778SOL     OW85180   7.806   8.865   1.065
26778SOL    HW185181   7.726   8.840   1.019
26778SOL    HW285182   7.846   8.932   1.010
26779SOL     OW85183   8.904   8.964   1.373
26779SOL    HW185184   8.964   9.038   1.379
26779SOL    HW285185   8.834   8.985   1.435
26780SOL     OW85186   7.846   7.836   1.463
26780SOL    HW185187   7.901   7.838   1.541
26780SOL    HW285188   7.876   7.759   1.414
26781SOL     OW85189   9.039   7.885   0.755
26781SOL    HW185190   8.974   7.898   0.685
26781SOL    HW285191   9.019   7.953   0.819
26782SOL     OW85192   7.677   9.156   0.466
26782SOL    HW185193   7.683   9.231   0.526
26782SOL    HW285194   7.766   9.145   0.432
26783SOL     OW85195   8.623   8.781   1.677
26783SOL    HW185196   8.713   8.760   1.702
26783SOL    HW285197   8.572   8.704   1.701
26784SOL     OW85198   7.598   8.905   0.548
26784SOL    HW185199   7.629   8.991   0.518
26784SOL    HW285200   7.549   8.923   0.627
26785SOL     OW85201   7.691   8.560   0.870
26785SOL    HW185202   7.702   8.474   0.910
26785SOL    HW285203   7.638   8.610   0.932
26786SOL     OW85204   7.987   9.202   1.390
26786SOL    HW185205   7.915   9.196   1.453
26786SOL    HW285206   8.038   9.278   1.419
26787SOL     OW85207   8.022   8.399   0.173
26787SOL    HW185208   7.991   8.473   0.121
26787SOL    HW285209   8.084   8.438   0.235
26788SOL     OW85210   8.945   7.694   1.472
26788SOL    HW185211   9.017   7.737   1.426
26788SOL    HW285212   8.988   7.650   1.546
26789SOL     OW85213   7.556   8.077   0.601
26789SOL    HW185214   7.538   7.994   0.647
26789SOL    HW285215   7.545   8.144   0.668
26790SOL     OW85216   9.350   9.256   0.306
26790SOL    HW185217   9.413   9.220   0.369
26790SOL    HW285218   9.384   9.343   0.285
26791SOL     OW85219   7.545   8.982   0.100
26791SOL    HW185220   7.490   8.908   0.126
26791SOL    HW285221   7.514   9.054   0.155
26792SOL     OW85222   9.142   8.269   0.593
26792SOL    HW185223   9.219   8.278   0.648
26792SOL    HW285224   9.129   8.355   0.554
26793SOL     OW85225   9.096   8.530   0.478
26793SOL    HW185226   9.172   8.527   0.420
26793SOL    HW285227   9.125   8.582   0.553
26794SOL     OW85228   7.651   8.136   1.626
26794SOL    HW185229   7.742   8.160   1.614
26794SOL    HW285230   7.606   8.218   1.646
26795SOL     OW85231   8.079   8.831   0.757
26795SOL    HW185232   8.028   8.750   0.756
26795SOL    HW285233   8.069   8.867   0.669
26796SOL     OW85234   8.731   8.646   1.406
26796SOL    HW185235   8.756   8.582   1.340
26796SOL    HW285236   8.794   8.635   1.477
26797SOL     OW85237   8.294   7.493   0.574
26797SOL    HW185238   8.328   7.565   0.521
26797SOL    HW285239   8.201   7.489   0.552
26798SOL     OW85240   7.629   8.422   1.279
26798SOL    HW185241   7.719   8.389   1.272
26798SOL    HW285242   7.583   8.383   1.205
26799SOL     OW85243   8.922   8.491   0.254
26799SOL    HW185244   8.863   8.421   0.281
26799SOL    HW285245   8.982   8.502   0.328
26800SOL     OW85246   8.633   9.294   1.661
26800SOL    HW185247   8.634   9.356   1.588
26800SOL    HW285248   8.664   9.212   1.623
26801SOL     OW85249   8.913   8.826   0.962
26801SOL    HW185250   8.848   8.854   1.027
26801SOL    HW285251   8.882   8.741   0.932
26802SOL     OW85252   9.105   9.185   0.493
26802SOL    HW185253   9.024   9.138   0.510
26802SOL    HW285254   9.156   9.176   0.574
26803SOL     OW85255   8.029   8.127   0.275
26803SOL    HW185256   8.046   8.213   0.236
26803SOL    HW285257   7.974   8.146   0.351
26804SOL     OW85258   8.731   7.845   0.957
26804SOL    HW185259   8.640   7.814   0.957
26804SOL    HW285260   8.778   7.780   1.009
26805SOL     OW85261   8.254   8.068   1.434
26805SOL    HW185262   8.212   8.049   1.518
26805SOL    HW285263   8.218   8.002   1.374
26806SOL     OW85264   8.918   7.896   1.725
26806SOL    HW185265   8.870   7.913   1.806
26806SOL    HW285266   9.010   7.895   1.752
26807SOL     OW85267   8.374   8.372   1.591
26807SOL    HW185268   8.440   8.314   1.553
26807SOL    HW285269   8.335   8.418   1.516
26808SOL     OW85270   8.425   7.811   1.237
26808SOL    HW185271   8.338   7.850   1.243
26808SOL    HW285272   8.439   7.799   1.143
26809SOL     OW85273   8.511   8.124   0.405
26809SOL    HW185274   8.530   8.123   0.499
26809SOL    HW285275   8.425   8.081   0.398
26810SOL     OW85276   7.519   8.280   0.778
26810SOL    HW185277   7.603   8.284   0.825
26810SOL    HW285278   7.464   8.345   0.822
26811SOL     OW85279   7.519   9.123   1.665
26811SOL    HW185280   7.538   9.133   1.758
26811SOL    HW285281   7.511   9.212   1.632
26812SOL     OW85282   8.301   7.765   0.198
26812SOL    HW185283   8.288   7.800   0.110
26812SOL    HW285284   8.308   7.670   0.185
26813SOL     OW85285   9.169   7.998   1.822
26813SOL    HW185286   9.140   8.077   1.778
26813SOL    HW285287   9.213   7.947   1.755
26814SOL     OW85288   8.837   8.606   0.576
26814SOL    HW185289   8.920   8.589   0.531
26814SOL    HW285290   8.789   8.665   0.518
26815SOL     OW85291   7.985   7.640   0.929
26815SOL    HW185292   7.979   7.664   1.021
26815SOL    HW285293   7.992   7.723   0.882
26816SOL     OW85294   8.452   8.914   0.467
26816SOL    HW185295   8.421   8.991   0.420
26816SOL    HW285296   8.427   8.930   0.558
26817SOL     OW85297   7.776   9.267   0.895
26817SOL    HW185298   7.842   9.200   0.911
26817SOL    HW285299   7.792   9.334   0.961
26818SOL     OW85300   9.245   8.502   0.903
26818SOL    HW185301   9.224   8.563   0.832
26818SOL    HW285302   9.171   8.510   0.963
26819SOL     OW85303   8.674   9.019   1.523
26819SOL    HW185304   8.663   8.934   1.567
26819SOL    HW285305   8.587   9.039   1.488
26820SOL     OW85306   7.778   8.364   0.299
26820SOL    HW185307   7.863   8.372   0.256
26820SOL    HW285308   7.788   8.288   0.356
26821SOL     OW85309   8.902   8.218   0.713
26821SOL    HW185310   8.916   8.160   0.788
26821SOL    HW285311   8.990   8.234   0.679
26822SOL     OW85312   7.909   8.684   1.786
26822SOL    HW185313   7.896   8.681   1.691
26822SOL    HW285314   7.824   8.709   1.821
26823SOL     OW85315   8.537   9.211   0.166
26823SOL    HW185316   8.480   9.171   0.232
26823SOL    HW285317   8.588   9.138   0.130
26824SOL     OW85318   7.613   7.697   1.551
26824SOL    HW185319   7.663   7.775   1.525
26824SOL    HW285320   7.655   7.668   1.632
26825SOL     OW85321   9.057   8.806   0.089
26825SOL    HW185322   9.024   8.896   0.085
26825SOL    HW285323   8.984   8.752   0.059
26826SOL     OW85324   7.941   9.156   0.381
26826SOL    HW185325   7.976   9.231   0.429
26826SOL    HW285326   8.007   9.136   0.315
26827SOL     OW85327   7.581   9.231   1.276
26827SOL    HW185328   7.658   9.276   1.241
26827SOL    HW285329   7.512   9.297   1.276
26828SOL     OW85330   8.409   9.116   0.920
26828SOL    HW185331   8.503   9.116   0.933
26828SOL    HW285332   8.396   9.073   0.835
26829SOL     OW85333   7.809   8.138   0.467
26829SOL    HW185334   7.825   8.043   0.467
26829SOL    HW285335   7.724   8.147   0.510
26830SOL     OW85336   9.065   7.580   1.691
26830SOL    HW185337   9.070   7.615   1.780
26830SOL    HW285338   9.073   7.485   1.703
26831SOL     OW85339   8.094   7.544   0.113
26831SOL    HW185340   8.182   7.507   0.124
26831SOL    HW285341   8.084   7.553   0.018
26832SOL     OW85342   8.322   8.944   1.204
26832SOL    HW185343   8.302   8.916   1.115
26832SOL    HW285344   8.404   8.900   1.226
26833SOL     OW85345   8.786   8.057   1.524
26833SOL    HW185346   8.851   8.064   1.594
26833SOL    HW285347   8.802   8.133   1.468
26834SOL     OW85348   8.275   8.798   0.966
26834SOL    HW185349   8.359   8.805   0.922
26834SOL    HW285350   8.210   8.810   0.897
26835SOL     OW85351   8.371   7.961   0.889
26835SOL    HW185352   8.349   7.948   0.797
26835SOL    HW285353   8.400   7.876   0.920
26836SOL     OW85354   8.024   7.515   0.499
26836SOL    HW185355   7.944   7.514   0.551
26836SOL    HW285356   8.012   7.586   0.437
26837SOL     OW85357   8.845   8.633   0.028
26837SOL    HW185358   8.875   8.576   0.098
26837SOL    HW285359   8.765   8.673   0.062
26838SOL     OW85360   8.412   7.704   0.446
26838SOL    HW185361   8.372   7.731   0.364
26838SOL    HW285362   8.506   7.712   0.430
26839SOL     OW85363   8.522   8.172   1.471
26839SOL    HW185364   8.450   8.108   1.473
26839SOL    HW285365   8.598   8.122   1.498
26840SOL     OW85366   8.671   9.015   0.757
26840SOL    HW185367   8.681   9.088   0.696
26840SOL    HW285368   8.691   9.052   0.843
26841SOL     OW85369   7.914   8.604   0.706
26841SOL    HW185370   7.844   8.591   0.771
26841SOL    HW285371   7.869   8.600   0.622
26842SOL     OW85372   8.712   9.237   0.585
26842SOL    HW185373   8.756   9.305   0.535
26842SOL    HW285374   8.642   9.283   0.632
26843SOL     OW85375   8.511   8.008   9.976
26843SOL    HW185376   8.435   7.951   9.986
26843SOL    HW285377   8.560   7.998   0.058
26844SOL     OW85378   7.541   7.975   1.432
26844SOL    HW185379   7.603   7.998   1.363
26844SOL    HW285380   7.567   8.029   1.506
26845SOL     OW85381   7.962   7.698   1.202
26845SOL    HW185382   8.007   7.658   1.277
26845SOL    HW285383   7.870   7.675   1.215
26846SOL     OW85384   8.322   7.895   0.628
26846SOL    HW185385   8.284   7.949   0.560
26846SOL    HW285386   8.359   7.820   0.582
26847SOL     OW85387   8.471   7.509   0.777
26847SOL    HW185388   8.403   7.518   0.710
26847SOL    HW285389   8.441   7.437   0.832
26848SOL     OW85390   8.850   8.572   0.869
26848SOL    HW185391   8.803   8.491   0.885
26848SOL    HW285392   8.845   8.585   0.774
26849SOL     OW85393   8.907   8.063   0.941
26849SOL    HW185394   8.843   7.993   0.954
26849SOL    HW285395   8.964   8.057   1.019
26850SOL     OW85396   9.363   8.216   0.344
26850SOL    HW185397   9.380   8.172   0.428
26850SOL    HW285398   9.309   8.153   0.295
26851SOL     OW85399   7.879   8.881   0.129
26851SOL    HW185400   7.819   8.857   0.200
26851SOL    HW285401   7.825   8.930   0.068
26852SOL     OW85402   9.190   8.677   0.689
26852SOL    HW185403   9.281   8.701   0.670
26852SOL    HW285404   9.144   8.761   0.699
26853SOL     OW85405   8.861   8.013   0.067
26853SOL    HW185406   8.787   7.990   0.122
26853SOL    HW285407   8.913   7.932   0.063
26854SOL     OW85408   7.971   7.705   0.305
26854SOL    HW185409   8.024   7.655   0.242
26854SOL    HW285410   7.938   7.779   0.254
26855SOL     OW85411   9.159   8.685   1.532
26855SOL    HW185412   9.249   8.652   1.523
26855SOL    HW285413   9.171   8.774   1.567
26856SOL     OW85414   8.520   8.786   1.317
26856SOL    HW185415   8.447   8.775   1.378
26856SOL    HW285416   8.593   8.741   1.358
26857SOL     OW85417   9.046   9.087   1.664
26857SOL    HW185418   9.045   9.132   1.580
26857SOL    HW285419   9.123   9.030   1.660
26858SOL     OW85420   8.542   8.630   1.086
26858SOL    HW185421   8.524   8.690   1.158
26858SOL    HW285422   8.544   8.686   1.008
26859SOL     OW85423   9.037   8.536   1.079
26859SOL    HW185424   9.028   8.603   1.147
26859SOL    HW285425   8.966   8.555   1.017
26860SOL     OW85426   8.334   7.564   1.344
26860SOL    HW185427   8.367   7.519   1.266
26860SOL    HW285428   8.375   7.650   1.341
26861SOL     OW85429   8.451   8.576   1.767
26861SOL    HW185430   8.374   8.629   1.787
26861SOL    HW285431   8.420   8.510   1.705
26862SOL     OW85432   8.178   8.499   0.385
26862SOL    HW185433   8.160   8.467   0.474
26862SOL    HW285434   8.255   8.449   0.357
26863SOL     OW85435   7.871   8.291   1.260
26863SOL    HW185436   7.942   8.297   1.324
26863SOL    HW285437   7.834   8.204   1.274
26864SOL     OW85438   8.676   7.834   1.346
26864SOL    HW185439   8.713   7.900   1.287
26864SOL    HW285440   8.587   7.820   1.315
26865SOL     OW85441   7.523   8.970   1.330
26865SOL    HW185442   7.523   9.063   1.308
26865SOL    HW285443   7.616   8.948   1.340
26866SOL     OW85444   7.762   8.582   0.471
26866SOL    HW185445   7.754   8.657   0.412
26866SOL    HW285446   7.770   8.506   0.412
26867SOL     OW85447   7.990   7.925   0.853
26867SOL    HW185448   7.993   7.982   0.777
26867SOL    HW285449   8.051   7.965   0.916
26868SOL     OW85450   8.700   8.801   0.422
26868SOL    HW185451   8.757   8.870   0.456
26868SOL    HW285452   8.611   8.829   0.445
26869SOL     OW85453   8.736   8.905   1.166
26869SOL    HW185454   8.801   8.926   1.234
26869SOL    HW285455   8.663   8.865   1.214
26870SOL     OW85456   9.022   8.035   0.491
26870SOL    HW185457   8.931   8.065   0.502
26870SOL    HW285458   9.075   8.110   0.516
26871SOL     OW85459   7.788   8.905   1.337
26871SOL    HW185460   7.795   8.891   1.242
26871SOL    HW285461   7.847   8.979   1.354
26872SOL     OW85462   7.919   8.206   1.628
26872SOL    HW185463   7.962   8.256   1.560
26872SOL    HW285464   7.981   8.136   1.650
26873SOL     OW85465   9.063   8.220   1.698
26873SOL    HW185466   8.975   8.258   1.701
26873SOL    HW285467   9.108   8.267   1.628
26874SOL     OW85468   8.472   7.540   1.674
26874SOL    HW185469   8.504   7.623   1.710
26874SOL    HW285470   8.552   7.493   1.649
26875SOL     OW85471   8.023   8.329   1.032
26875SOL    HW185472   8.077   8.407   1.041
26875SOL    HW285473   7.971   8.326   1.113
26876SOL     OW85474   8.750   8.313   0.966
26876SOL    HW185475   8.661   8.283   0.947
26876SOL    HW285476   8.806   8.238   0.946
26877SOL     OW85477   8.637   7.954   0.222
26877SOL    HW185478   8.649   7.873   0.272
26877SOL    HW285479   8.599   8.016   0.285
26878SOL     OW85480   7.702   7.622   1.278
26878SOL    HW185481   7.664   7.646   1.363
26878SOL    HW285482   7.676   7.531   1.266
26879SOL     OW85483   7.432   8.715   1.294
26879SOL    HW185484   7.483   8.669   1.361
26879SOL    HW285485   7.463   8.806   1.300
26880SOL     OW85486   8.143   8.074   1.027
26880SOL    HW185487   8.225   8.071   0.976
26880SOL    HW285488   8.112   8.164   1.018
26881SOL     OW85489   9.180   8.407   1.877
26881SOL    HW185490   9.144   8.332   1.830
26881SOL    HW285491   9.108   8.437   1.932
26882SOL     OW85492   7.772   7.507   0.627
26882SOL    HW185493   7.756   7.599   0.650
26882SOL    HW285494   7.775   7.462   0.711
26883SOL     OW85495   9.104   7.817   0.342
26883SOL    HW185496   9.140   7.749   0.399
26883SOL    HW285497   9.072   7.885   0.402
26884SOL     OW85498   8.483   8.204   0.946
26884SOL    HW185499   8.468   8.218   1.040
26884SOL    HW285500   8.448   8.117   0.929
26885SOL     OW85501   8.428   8.968   1.716
26885SOL    HW185502   8.409   9.020   1.638
26885SOL    HW285503   8.493   8.904   1.687
26886SOL     OW85504   9.271   8.928   1.610
26886SOL    HW185505   9.308   8.959   1.527
26886SOL    HW285506   9.345   8.930   1.671
26887SOL     OW85507   7.797   8.317   1.850
26887SOL    HW185508   7.860   8.374   1.894
26887SOL    HW285509   7.845   8.283   1.774
26888SOL     OW85510   8.997   7.775   0.087
26888SOL    HW185511   8.952   7.692   0.074
26888SOL    HW285512   9.030   7.772   0.177
26889SOL     OW85513   8.799   8.277   0.039
26889SOL    HW185514   8.821   8.184   0.036
26889SOL    HW285515   8.879   8.322   0.014
26890SOL     OW85516   8.527   8.797   0.858
26890SOL    HW185517   8.527   8.725   0.795
26890SOL    HW285518   8.581   8.865   0.817
26891SOL     OW85519   7.753   8.281   0.938
26891SOL    HW185520   7.845   8.303   0.946
26891SOL    HW285521   7.748   8.189   0.964
26892SOL     OW85522   7.765   7.996   1.002
26892SOL    HW185523   7.728   7.908   1.003
26892SOL    HW285524   7.842   7.989   0.945
26893SOL     OW85525   8.625   7.785   1.742
26893SOL    HW185526   8.552   7.835   1.779
26893SOL    HW285527   8.684   7.770   1.816
26894SOL     OW85528   7.440   8.728   0.175
26894SOL    HW185529   7.350   8.753   0.156
26894SOL    HW285530   7.432   8.655   0.237
26895SOL     OW85531   7.506   9.231   0.872
26895SOL    HW185532   7.500   9.153   0.817
26895SOL    HW285533   7.600   9.244   0.885
26896SOL     OW85534   7.958   9.045   0.911
26896SOL    HW185535   8.026   9.112   0.919
26896SOL    HW285536   7.998   8.976   0.858
26897SOL     OW85537   8.413   8.202   1.211
26897SOL    HW185538   8.475   8.224   1.281
26897SOL    HW285539   8.336   8.168   1.257
26898SOL     OW85540   7.482   8.008   1.086
26898SOL    HW185541   7.463   7.934   1.028
26898SOL    HW285542   7.571   8.035   1.061
26899SOL     OW85543   7.688   7.910   1.806
26899SOL    HW185544   7.770   7.861   1.817
26899SOL    HW285545   7.704   7.964   1.728
26900SOL     OW85546   8.818   8.343   1.664
26900SOL    HW185547   8.841   8.436   1.666
26900SOL    HW285548   8.806   8.324   1.571
26901SOL     OW85549   8.266   7.994   0.366
26901SOL    HW185550   8.272   7.918   0.307
26901SOL    HW285551   8.189   8.042   0.335
26902SOL     OW85552   9.080   8.033   1.153
26902SOL    HW185553   9.084   7.976   1.230
26902SOL    HW285554   9.171   8.038   1.122
26903SOL     OW85555   7.775   9.011   1.829
26903SOL    HW185556   7.718   9.081   1.862
26903SOL    HW285557   7.718   8.934   1.824
26904SOL     OW85558   8.162   7.898   1.234
26904SOL    HW185559   8.091   7.835   1.221
26904SOL    HW285560   8.150   7.962   1.164
26905SOL     OW85561   8.409   9.082   1.455
26905SOL    HW185562   8.376   9.054   1.370
26905SOL    HW285563   8.404   9.178   1.452
26906SOL     OW85564   7.877   7.925   0.157
26906SOL    HW185565   7.938   7.990   0.191
26906SOL    HW285566   7.791   7.965   0.167
26907SOL     OW85567   7.564   8.560   1.502
26907SOL    HW185568   7.570   8.498   1.575
26907SOL    HW285569   7.589   8.509   1.425
26908SOL     OW85570   8.724   8.456   1.198
26908SOL    HW185571   8.749   8.406   1.120
26908SOL    HW285572   8.656   8.516   1.166
26909SOL     OW85573   8.752   8.281   0.319
26909SOL    HW185574   8.671   8.240   0.349
26909SOL    HW285575   8.750   8.270   0.224
26910SOL     OW85576   9.170   9.160   1.132
26910SOL    HW185577   9.243   9.193   1.079
26910SOL    HW285578   9.173   9.065   1.121
26911SOL     OW85579   8.684   9.126   1.011
26911SOL    HW185580   8.766   9.174   1.007
26911SOL    HW285581   8.703   9.050   1.067
26912SOL     OW85582   7.529   8.725   1.030
26912SOL    HW185583   7.510   8.696   1.120
26912SOL    HW285584   7.465   8.794   1.013
26913SOL     OW85585   8.093   9.190   1.684
26913SOL    HW185586   8.015   9.238   1.713
26913SOL    HW285587   8.137   9.250   1.624
26914SOL     OW85588   8.368   7.480   0.158
26914SOL    HW185589   8.454   7.510   0.128
26914SOL    HW285590   8.385   7.394   0.196
26915SOL     OW85591   9.233   7.616   0.493
26915SOL    HW185592   9.290   7.592   0.420
26915SOL    HW285593   9.208   7.532   0.533
26916SOL     OW85594   8.861   9.033   0.485
26916SOL    HW185595   8.846   9.049   0.391
26916SOL    HW285596   8.805   9.096   0.529
26917SOL     OW85597   7.595   9.222   1.913
26917SOL    HW185598   7.556   9.288   1.856
26917SOL    HW285599   7.652   9.272   1.971
26918SOL     OW85600   8.699   8.385   0.654
26918SOL    HW185601   8.773   8.329   0.676
26918SOL    HW285602   8.738   8.461   0.611
26919SOL     OW85603   8.272   8.766   1.454
26919SOL    HW185604   8.244   8.796   1.540
26919SOL    HW285605   8.227   8.823   1.392
26920SOL     OW85606   8.108   9.060   0.186
26920SOL    HW185607   8.138   9.085   0.099
26920SOL    HW285608   8.052   8.984   0.171
26921SOL     OW85609   9.058   9.192   1.393
26921SOL    HW185610   9.107   9.186   1.311
26921SOL    HW285611   9.040   9.286   1.404
26922SOL     OW85612   9.272   7.603   0.993
26922SOL    HW185613   9.308   7.517   0.969
26922SOL    HW285614   9.193   7.611   0.939
26923SOL     OW85615   7.734   7.756   0.727
26923SOL    HW185616   7.649   7.799   0.729
26923SOL    HW285617   7.760   7.750   0.819
26924SOL     OW85618   8.706   9.012   0.070
26924SOL    HW185619   8.681   8.922   0.089
26924SOL    HW285620   8.724   9.012   9.976
26925SOL     OW85621   8.261   8.501   1.368
26925SOL    HW185622   8.265   8.507   1.272
26925SOL    HW285623   8.263   8.591   1.398
26926SOL     OW85624   8.382   8.348   0.289
26926SOL    HW185625   8.434   8.372   0.211
26926SOL    HW285626   8.431   8.276   0.329
26927SOL     OW85627   8.974   9.089   0.086
26927SOL    HW185628   8.879   9.080   0.097
26927SOL    HW285629   8.987   9.102   9.992
26928SOL     OW85630   7.806   8.709   1.533
26928SOL    HW185631   7.808   8.777   1.466
26928SOL    HW285632   7.725   8.660   1.516
26929SOL     OW85633   9.026   8.725   1.283
26929SOL    HW185634   9.082   8.707   1.359
26929SOL    HW285635   8.977   8.804   1.308
26930SOL     OW85636   8.495   8.569   0.712
26930SOL    HW185637   8.426   8.519   0.754
26930SOL    HW285638   8.561   8.503   0.687
26931SOL     OW85639   8.480   7.708   0.975
26931SOL    HW185640   8.485   7.666   0.889
26931SOL    HW285641   8.472   7.636   1.037
26932SOL     OW85642   8.075   8.937   0.505
26932SOL    HW185643   8.116   8.886   0.436
26932SOL    HW285644   8.012   8.993   0.460
26933SOL     OW85645   9.167   7.834   1.363
26933SOL    HW185646   9.242   7.893   1.365
26933SOL    HW285647   9.200   7.754   1.322
26934SOL     OW85648   7.685   8.793   0.310
26934SOL    HW185649   7.607   8.780   0.257
26934SOL    HW285650   7.654   8.835   0.389
26935SOL     OW85651   7.561   8.388   1.718
26935SOL    HW185652   7.482   8.390   1.773
26935SOL    HW285653   7.633   8.380   1.781
26936SOL     OW85654   8.077   7.624   1.441
26936SOL    HW185655   8.170   7.612   1.425
26936SOL    HW285656   8.072   7.679   1.519
26937SOL     OW85657   7.564   7.753   0.071
26937SOL    HW185658   7.511   7.777   9.995
26937SOL    HW285659   7.604   7.835   0.099
26938SOL     OW85660   8.833   8.289   1.389
26938SOL    HW185661   8.779   8.345   1.332
26938SOL    HW285662   8.921   8.297   1.353
26939SOL     OW85663   7.489   7.637   0.324
26939SOL    HW185664   7.501   7.674   0.236
26939SOL    HW285665   7.578   7.627   0.358
26940SOL     OW85666   8.628   8.758   0.143
26940SOL    HW185667   8.533   8.770   0.131
26940SOL    HW285668   8.640   8.754   0.237
26941SOL     OW85669   8.087   8.296   1.427
26941SOL    HW185670   8.138   8.375   1.412
26941SOL    HW285671   8.152   8.225   1.432
26942SOL     OW85672   8.934   9.235   0.997
26942SOL    HW185673   8.958   9.319   0.959
26942SOL    HW285674   9.011   9.209   1.049
26943SOL     OW85675   8.120   8.021   1.670
26943SOL    HW185676   8.176   8.033   1.746
26943SOL    HW285677   8.084   7.932   1.681
26944SOL     OW85678   8.907   8.606   1.619
26944SOL    HW185679   8.899   8.637   1.710
26944SOL    HW285680   8.995   8.633   1.592
26945SOL     OW85681   7.790   9.137   1.572
26945SOL    HW185682   7.696   9.145   1.559
26945SOL    HW285683   7.799   9.082   1.650
26946SOL     OW85684   9.068   8.315   1.245
26946SOL    HW185685   9.084   8.235   1.195
26946SOL    HW285686   9.063   8.384   1.180
26947SOL     OW85687   8.677   7.725   0.378
26947SOL    HW185688   8.695   7.642   0.334
26947SOL    HW285689   8.749   7.736   0.439
26948SOL     OW85690   8.003   8.147   0.679
26948SOL    HW185691   8.049   8.230   0.675
26948SOL    HW285692   7.937   8.153   0.610
26949SOL     OW85693   9.233   7.802   1.632
26949SOL    HW185694   9.200   7.818   1.544
26949SOL    HW285695   9.187   7.723   1.661
26950SOL     OW85696   9.147   8.384   1.501
26950SOL    HW185697   9.154   8.479   1.505
26950SOL    HW285698   9.134   8.364   1.408
26951SOL     OW85699   8.359   8.824   0.096
26951SOL    HW185700   8.292   8.792   0.036
26951SOL    HW285701   8.318   8.822   0.182
26952SOL     OW85702   8.159   9.233   0.910
26952SOL    HW185703   8.177   9.327   0.921
26952SOL    HW285704   8.244   9.191   0.921
26953SOL     OW85705   8.311   8.416   0.859
26953SOL    HW185706   8.372   8.349   0.888
26953SOL    HW285707   8.280   8.458   0.940
26954SOL     OW85708   8.553   8.403   0.079
26954SOL    HW185709   8.562   8.487   0.034
26954SOL    HW285710   8.633   8.355   0.055
26955SOL     OW85711   9.263   8.987   0.827
26955SOL    HW185712   9.181   8.969   0.780
26955SOL    HW285713   9.250   8.948   0.913
26956SOL     OW85714   7.645   8.765   1.839
26956SOL    HW185715   7.585   8.739   1.769
26956SOL    HW285716   7.597   8.748   1.920
26957SOL     OW85717   7.519   8.651   0.665
26957SOL    HW185718   7.582   8.611   0.724
26957SOL    HW285719   7.569   8.718   0.618
26958SOL     OW85720   8.089   8.925   1.623
26958SOL    HW185721   8.062   8.921   1.531
26958SOL    HW285722   8.099   9.019   1.641
26959SOL     OW85723   9.216   7.581   1.260
26959SOL    HW185724   9.262   7.498   1.274
26959SOL    HW285725   9.231   7.602   1.168
26960SOL     OW85726   7.838   7.871   0.492
26960SOL    HW185727   7.892   7.804   0.449
26960SOL    HW285728   7.813   7.831   0.576
26961SOL     OW85729   9.171   8.888   1.069
26961SOL    HW185730   9.082   8.859   1.047
26961SOL    HW285731   9.199   8.828   1.138
26962SOL     OW85732   7.771   8.036   1.283
26962SOL    HW185733   7.808   7.966   1.337
26962SOL    HW285734   7.784   8.006   1.193
26963SOL     OW85735   8.301   8.998   0.686
26963SOL    HW185736   8.248   9.041   0.618
26963SOL    HW285737   8.241   8.936   0.727
26964SOL     OW85738   8.856   7.654   1.112
26964SOL    HW185739   8.867   7.560   1.094
26964SOL    HW285740   8.856   7.660   1.207
26965SOL     OW85741   8.442   7.462   1.108
26965SOL    HW185742   8.386   7.403   1.058
26965SOL    HW285743   8.530   7.423   1.102
26966SOL     OW85744   8.236   8.773   0.344
26966SOL    HW185745   8.215   8.681   0.356
26966SOL    HW285746   8.314   8.788   0.397
26967SOL     OW85747   8.086   8.957   1.336
26967SOL    HW185748   8.054   9.046   1.348
26967SOL    HW285749   8.160   8.966   1.277
26968SOL     OW85750   8.855   7.537   0.045
26968SOL    HW185751   8.913   7.463   0.059
26968SOL    HW285752   8.795   7.536   0.119
26969SOL     OW85753   8.763   7.920   0.674
26969SOL    HW185754   8.703   7.994   0.663
26969SOL    HW285755   8.748   7.890   0.764
26970SOL     OW85756   9.023   7.641   0.883
26970SOL    HW185757   8.971   7.675   0.956
26970SOL    HW285758   9.032   7.716   0.823
26971SOL     OW85759   7.477   8.518   0.370
26971SOL    HW185760   7.547   8.548   0.429
26971SOL    HW285761   7.491   8.424   0.363
26972SOL     OW85762   8.336   9.140   0.346
26972SOL    HW185763   8.257   9.116   0.296
26972SOL    HW285764   8.329   9.235   0.357
26973SOL     OW85765   7.648   8.125   1.976
26973SOL    HW185766   7.694   8.198   1.934
26973SOL    HW285767   7.649   8.055   1.910
26974SOL     OW85768   7.718   7.724   2.823
26974SOL    HW185769   7.776   7.686   2.889
26974SOL    HW285770   7.642   7.667   2.822
26975SOL     OW85771   7.981   8.682   3.069
26975SOL    HW185772   7.970   8.754   3.007
26975SOL    HW285773   8.059   8.705   3.119
26976SOL     OW85774   9.033   8.986   2.579
26976SOL    HW185775   8.983   8.949   2.652
26976SOL    HW285776   8.973   8.983   2.504
26977SOL     OW85777   8.639   8.105   2.573
26977SOL    HW185778   8.677   8.186   2.539
26977SOL    HW285779   8.668   8.100   2.664
26978SOL     OW85780   9.249   8.051   2.085
26978SOL    HW185781   9.206   8.024   2.004
26978SOL    HW285782   9.181   8.047   2.152
26979SOL     OW85783   8.263   8.522   2.901
26979SOL    HW185784   8.242   8.517   2.994
26979SOL    HW285785   8.213   8.597   2.868
26980SOL     OW85786   8.281   8.258   3.561
26980SOL    HW185787   8.315   8.293   3.644
26980SOL    HW285788   8.289   8.331   3.499
26981SOL     OW85789   8.129   8.630   3.742
26981SOL    HW185790   8.186   8.634   3.665
26981SOL    HW285791   8.040   8.629   3.705
26982SOL     OW85792   7.916   8.923   2.874
26982SOL    HW185793   7.911   8.878   2.790
26982SOL    HW285794   7.935   9.015   2.852
26983SOL     OW85795   8.822   8.924   3.246
26983SOL    HW185796   8.865   9.009   3.251
26983SOL    HW285797   8.893   8.861   3.247
26984SOL     OW85798   7.966   7.842   3.421
26984SOL    HW185799   8.026   7.914   3.406
26984SOL    HW285800   8.007   7.767   3.377
26985SOL     OW85801   9.063   7.857   2.622
26985SOL    HW185802   9.005   7.824   2.553
26985SOL    HW285803   9.020   7.937   2.653
26986SOL     OW85804   7.685   9.067   2.337
26986SOL    HW185805   7.742   9.051   2.413
26986SOL    HW285806   7.708   9.156   2.309
26987SOL     OW85807   7.574   8.910   2.546
26987SOL    HW185808   7.562   8.956   2.463
26987SOL    HW285809   7.666   8.923   2.568
26988SOL     OW85810   7.649   8.480   2.857
26988SOL    HW185811   7.689   8.396   2.837
26988SOL    HW285812   7.689   8.541   2.795
26989SOL     OW85813   8.098   9.262   3.360
26989SOL    HW185814   8.089   9.309   3.277
26989SOL    HW285815   8.187   9.227   3.357
26990SOL     OW85816   7.962   8.494   1.991
26990SOL    HW185817   7.956   8.561   1.923
26990SOL    HW285818   8.029   8.527   2.052
26991SOL     OW85819   8.988   7.599   3.291
26991SOL    HW185820   8.928   7.607   3.366
26991SOL    HW285821   9.055   7.666   3.307
26992SOL     OW85822   7.586   8.044   2.412
26992SOL    HW185823   7.566   8.087   2.495
26992SOL    HW285824   7.553   8.104   2.345
26993SOL     OW85825   9.295   9.196   2.156
26993SOL    HW185826   9.375   9.184   2.207
26993SOL    HW285827   9.296   9.288   2.131
26994SOL     OW85828   7.396   9.078   2.061
26994SOL    HW185829   7.463   9.130   2.016
26994SOL    HW285830   7.362   9.136   2.129
26995SOL     OW85831   9.226   8.433   2.474
26995SOL    HW185832   9.171   8.434   2.552
26995SOL    HW285833   9.295   8.370   2.495
26996SOL     OW85834   9.095   8.551   2.267
26996SOL    HW185835   9.175   8.565   2.216
26996SOL    HW285836   9.123   8.499   2.342
26997SOL     OW85837   7.645   8.219   3.421
26997SOL    HW185838   7.739   8.217   3.439
26997SOL    HW285839   7.625   8.311   3.406
26998SOL     OW85840   8.071   8.657   2.458
26998SOL    HW185841   8.021   8.592   2.507
26998SOL    HW285842   8.038   8.741   2.489
26999SOL     OW85843   8.241   7.430   2.421
26999SOL    HW185844   8.298   7.494   2.379
26999SOL    HW285845   8.152   7.459   2.400
27000SOL     OW85846   7.564   8.370   3.100
27000SOL    HW185847   7.642   8.315   3.109
27000SOL    HW285848   7.580   8.422   3.021
27001SOL     OW85849   8.957   8.483   2.037
27001SOL    HW185850   8.889   8.425   2.070
27001SOL    HW285851   9.002   8.514   2.116
27002SOL     OW85852   8.630   9.333   3.550
27002SOL    HW185853   8.626   9.389   3.473
27002SOL    HW285854   8.685   9.259   3.523
27003SOL     OW85855   7.788   7.797   3.621
27003SOL    HW185856   7.855   7.816   3.555
27003SOL    HW285857   7.826   7.826   3.704
27004SOL     OW85858   8.890   8.851   2.788
27004SOL    HW185859   8.968   8.848   2.844
27004SOL    HW285860   8.871   8.759   2.769
27005SOL     OW85861   9.123   9.231   2.425
27005SOL    HW185862   9.088   9.190   2.347
27005SOL    HW285863   9.105   9.168   2.495
27006SOL     OW85864   8.024   8.186   2.153
27006SOL    HW185865   8.059   8.259   2.102
27006SOL    HW285866   7.984   8.228   2.230
27007SOL     OW85867   8.780   7.794   2.801
27007SOL    HW185868   8.728   7.777   2.722
27007SOL    HW285869   8.763   7.719   2.858
27008SOL     OW85870   9.035   9.109   2.178
27008SOL    HW185871   9.127   9.135   2.167
27008SOL    HW285872   9.001   9.103   2.089
27009SOL     OW85873   8.177   8.035   3.411
27009SOL    HW185874   8.221   8.114   3.443
27009SOL    HW285875   8.214   8.021   3.324
27010SOL     OW85876   8.847   7.928   3.612
27010SOL    HW185877   8.844   7.972   3.697
27010SOL    HW285878   8.889   7.991   3.554
27011SOL     OW85879   8.302   7.744   3.070
27011SOL    HW185880   8.328   7.830   3.102
27011SOL    HW285881   8.352   7.733   2.989
27012SOL     OW85882   8.482   8.125   2.337
27012SOL    HW185883   8.546   8.120   2.408
27012SOL    HW285884   8.398   8.111   2.380
27013SOL     OW85885   7.534   8.197   2.635
27013SOL    HW185886   7.619   8.218   2.674
27013SOL    HW285887   7.481   8.275   2.651
27014SOL     OW85888   7.537   9.278   3.420
27014SOL    HW185889   7.546   9.269   3.515
27014SOL    HW285890   7.545   9.372   3.404
27015SOL     OW85891   8.276   7.786   2.096
27015SOL    HW185892   8.255   7.861   2.152
27015SOL    HW285893   8.330   7.823   2.026
27016SOL     OW85894   9.189   7.956   3.639
27016SOL    HW185895   9.113   8.010   3.618
27016SOL    HW285896   9.264   8.007   3.608
27017SOL     OW85897   8.848   8.579   2.406
27017SOL    HW185898   8.929   8.578   2.356
27017SOL    HW285899   8.795   8.648   2.366
27018SOL     OW85900   8.009   7.644   2.707
27018SOL    HW185901   7.966   7.687   2.781
27018SOL    HW285902   8.087   7.698   2.691
27019SOL     OW85903   8.479   8.929   2.348
27019SOL    HW185904   8.490   9.016   2.311
27019SOL    HW285905   8.509   8.937   2.439
27020SOL     OW85906   9.113   8.411   2.721
27020SOL    HW185907   9.138   8.497   2.756
27020SOL    HW285908   9.171   8.350   2.767
27021SOL     OW85909   7.750   8.420   2.157
27021SOL    HW185910   7.812   8.447   2.089
27021SOL    HW285911   7.798   8.356   2.210
27022SOL     OW85912   8.957   8.217   2.601
27022SOL    HW185913   8.920   8.165   2.672
27022SOL    HW285914   9.014   8.281   2.645
27023SOL     OW85915   7.879   8.613   3.621
27023SOL    HW185916   7.922   8.660   3.550
27023SOL    HW285917   7.814   8.676   3.654
27024SOL     OW85918   8.558   9.206   2.073
27024SOL    HW185919   8.494   9.262   2.027
27024SOL    HW285920   8.582   9.140   2.009
27025SOL     OW85921   7.621   7.649   3.449
27025SOL    HW185922   7.651   7.656   3.358
27025SOL    HW285923   7.682   7.702   3.499
27026SOL     OW85924   9.061   8.835   1.945
27026SOL    HW185925   9.029   8.925   1.940
27026SOL    HW285926   8.987   8.782   1.917
27027SOL     OW85927   8.047   9.280   2.185
27027SOL    HW185928   8.017   9.362   2.225
27027SOL    HW285929   8.060   9.301   2.093
27028SOL     OW85930   7.792   9.248   2.984
27028SOL    HW185931   7.819   9.174   3.038
27028SOL    HW285932   7.848   9.243   2.906
27029SOL     OW85933   8.362   9.295   2.768
27029SOL    HW185934   8.372   9.200   2.767
27029SOL    HW285935   8.268   9.310   2.761
27030SOL     OW85936   7.879   8.286   2.368
27030SOL    HW185937   7.940   8.277   2.441
27030SOL    HW285938   7.798   8.317   2.409
27031SOL     OW85939   8.990   7.696   3.599
27031SOL    HW185940   8.932   7.771   3.607
27031SOL    HW285941   8.952   7.629   3.657
27032SOL     OW85942   8.171   7.689   3.645
27032SOL    HW185943   8.266   7.679   3.643
27032SOL    HW285944   8.157   7.782   3.660
27033SOL     OW85945   8.832   8.005   3.293
27033SOL    HW185946   8.902   8.061   3.327
27033SOL    HW285947   8.773   8.065   3.247
27034SOL     OW85948   8.165   8.746   2.771
27034SOL    HW185949   8.187   8.825   2.819
27034SOL    HW285950   8.090   8.771   2.716
27035SOL     OW85951   8.223   7.819   2.712
27035SOL    HW185952   8.248   7.910   2.696
27035SOL    HW285953   8.301   7.780   2.753
27036SOL     OW85954   8.007   7.541   2.310
27036SOL    HW185955   7.966   7.593   2.379
27036SOL    HW285956   8.014   7.600   2.236
27037SOL     OW85957   8.842   8.675   1.876
27037SOL    HW185958   8.879   8.604   1.930
27037SOL    HW285959   8.764   8.702   1.924
27038SOL     OW85960   8.382   7.613   2.287
27038SOL    HW185961   8.339   7.666   2.219
27038SOL    HW285962   8.474   7.640   2.284
27039SOL     OW85963   8.506   8.036   3.360
27039SOL    HW185964   8.437   8.012   3.298
27039SOL    HW285965   8.567   8.089   3.309
27040SOL     OW85966   8.622   8.964   2.593
27040SOL    HW185967   8.643   9.049   2.555
27040SOL    HW285968   8.684   8.954   2.666
27041SOL     OW85969   7.781   8.557   2.626
27041SOL    HW185970   7.870   8.532   2.654
27041SOL    HW285971   7.791   8.582   2.535
27042SOL     OW85972   8.652   9.206   2.436
27042SOL    HW185973   8.709   9.278   2.411
27042SOL    HW285974   8.565   9.244   2.440
27043SOL     OW85975   8.440   7.930   1.897
27043SOL    HW185976   8.409   8.016   1.867
27043SOL    HW285977   8.492   7.949   1.975
27044SOL     OW85978   7.556   8.017   3.248
27044SOL    HW185979   7.643   7.992   3.217
27044SOL    HW285980   7.571   8.093   3.304
27045SOL     OW85981   7.914   7.639   3.002
27045SOL    HW185982   7.982   7.572   2.996
27045SOL    HW285983   7.958   7.715   3.039
27046SOL     OW85984   8.481   7.553   2.582
27046SOL    HW185985   8.490   7.629   2.523
27046SOL    HW285986   8.402   7.509   2.551
27047SOL     OW85987   8.792   8.593   2.707
27047SOL    HW185988   8.803   8.519   2.768
27047SOL    HW285989   8.842   8.567   2.630
27048SOL     OW85990   8.829   8.061   2.791
27048SOL    HW185991   8.824   7.966   2.803
27048SOL    HW285992   8.769   8.096   2.857
27049SOL     OW85993   9.384   8.260   2.203
27049SOL    HW185994   9.420   8.208   2.275
27049SOL    HW285995   9.334   8.198   2.151
27050SOL     OW85996   7.908   8.863   2.025
27050SOL    HW185997   7.854   8.838   2.100
27050SOL    HW285998   7.859   8.933   1.982
27051SOL     OW85999   8.783   7.934   1.958
27051SOL    HW186000   8.718   7.946   2.027
27051SOL    HW286001   8.840   7.864   1.989
27052SOL     OW86002   8.009   7.712   2.095
27052SOL    HW186003   8.100   7.740   2.095
27052SOL    HW286004   7.973   7.746   2.013
27053SOL     OW86005   9.224   8.746   3.427
27053SOL    HW186006   9.288   8.681   3.397
27053SOL    HW286007   9.277   8.818   3.461
27054SOL     OW86008   9.081   9.158   3.492
27054SOL    HW186009   9.049   9.146   3.403
27054SOL    HW286010   9.161   9.209   3.482
27055SOL     OW86011   8.505   8.655   2.927
27055SOL    HW186012   8.425   8.605   2.911
27055SOL    HW286013   8.537   8.677   2.840
27056SOL     OW86014   9.058   8.566   3.013
27056SOL    HW186015   9.064   8.639   3.075
27056SOL    HW286016   9.110   8.595   2.938
27057SOL     OW86017   8.335   7.575   3.279
27057SOL    HW186018   8.323   7.628   3.200
27057SOL    HW286019   8.426   7.591   3.306
27058SOL     OW86020   8.150   8.569   2.192
27058SOL    HW186021   8.117   8.596   2.278
27058SOL    HW286022   8.214   8.501   2.212
27059SOL     OW86023   7.812   8.252   3.088
27059SOL    HW186024   7.872   8.248   3.163
27059SOL    HW286025   7.860   8.303   3.022
27060SOL     OW86026   8.687   7.832   3.143
27060SOL    HW186027   8.741   7.881   3.204
27060SOL    HW286028   8.648   7.898   3.086
27061SOL     OW86029   7.564   9.073   3.113
27061SOL    HW186030   7.566   9.163   3.081
27061SOL    HW286031   7.656   9.051   3.129
27062SOL     OW86032   7.775   8.605   2.361
27062SOL    HW186033   7.762   8.692   2.323
27062SOL    HW286034   7.767   8.545   2.286
27063SOL     OW86035   7.989   8.025   2.660
27063SOL    HW186036   7.987   8.116   2.629
27063SOL    HW286037   8.081   8.009   2.680
27064SOL     OW86038   8.713   8.792   2.284
27064SOL    HW186039   8.775   8.861   2.309
27064SOL    HW286040   8.627   8.825   2.311
27065SOL     OW86041   8.712   8.929   2.991
27065SOL    HW186042   8.763   8.931   3.072
27065SOL    HW286043   8.775   8.903   2.924
27066SOL     OW86044   9.092   8.081   2.317
27066SOL    HW186045   9.015   8.049   2.365
27066SOL    HW286046   9.112   8.166   2.358
27067SOL     OW86047   7.832   9.002   3.122
27067SOL    HW186048   7.858   8.968   3.037
27067SOL    HW286049   7.909   8.988   3.178
27068SOL     OW86050   7.909   8.195   3.506
27068SOL    HW186051   7.951   8.229   3.427
27068SOL    HW286052   7.979   8.146   3.550
27069SOL     OW86053   9.000   8.141   3.518
27069SOL    HW186054   8.940   8.214   3.535
27069SOL    HW286055   9.073   8.181   3.471
27070SOL     OW86056   8.444   7.655   3.641
27070SOL    HW186057   8.499   7.721   3.599
27070SOL    HW286058   8.487   7.572   3.621
27071SOL     OW86059   7.853   7.476   3.639
27071SOL    HW186060   7.838   7.414   3.567
27071SOL    HW286061   7.842   7.562   3.599
27072SOL     OW86062   7.979   8.416   2.941
27072SOL    HW186063   7.996   8.440   2.850
27072SOL    HW286064   7.980   8.499   2.988
27073SOL     OW86065   8.794   8.372   2.893
27073SOL    HW186066   8.738   8.296   2.908
27073SOL    HW286067   8.881   8.343   2.922
27074SOL     OW86068   8.574   7.949   2.140
27074SOL    HW186069   8.593   7.870   2.190
27074SOL    HW286070   8.544   8.013   2.205
27075SOL     OW86071   7.700   7.684   3.180
27075SOL    HW186072   7.717   7.778   3.171
27075SOL    HW286073   7.770   7.642   3.129
27076SOL     OW86074   7.553   8.781   3.143
27076SOL    HW186075   7.621   8.737   3.195
27076SOL    HW286076   7.602   8.842   3.087
27077SOL     OW86077   9.327   8.421   3.616
27077SOL    HW186078   9.267   8.389   3.548
27077SOL    HW286079   9.294   8.383   3.697
27078SOL     OW86080   7.797   7.497   2.545
27078SOL    HW186081   7.759   7.584   2.537
27078SOL    HW286082   7.872   7.508   2.602
27079SOL     OW86083   8.309   8.927   3.569
27079SOL    HW186084   8.335   8.970   3.487
27079SOL    HW286085   8.295   8.835   3.545
27080SOL     OW86086   7.773   8.369   3.678
27080SOL    HW186087   7.819   8.451   3.658
27080SOL    HW286088   7.822   8.302   3.631
27081SOL     OW86089   8.699   8.218   1.895
27081SOL    HW186090   8.741   8.132   1.900
27081SOL    HW286091   8.740   8.260   1.820
27082SOL     OW86092   8.539   8.683   2.640
27082SOL    HW186093   8.627   8.648   2.656
27082SOL    HW286094   8.554   8.776   2.622
27083SOL     OW86095   7.777   8.259   2.750
27083SOL    HW186096   7.859   8.284   2.708
27083SOL    HW286097   7.798   8.179   2.798
27084SOL     OW86098   7.785   7.992   2.845
27084SOL    HW186099   7.755   7.902   2.839
27084SOL    HW286100   7.860   7.997   2.785
27085SOL     OW86101   8.605   7.837   3.517
27085SOL    HW186102   8.568   7.910   3.467
27085SOL    HW286103   8.690   7.869   3.547
27086SOL     OW86104   8.600   7.638   3.330
27086SOL    HW186105   8.606   7.705   3.397
27086SOL    HW286106   8.629   7.682   3.250
27087SOL     OW86107   7.492   8.716   2.062
27087SOL    HW186108   7.408   8.758   2.042
27087SOL    HW286109   7.468   8.632   2.100
27088SOL     OW86110   7.619   9.198   2.638
27088SOL    HW186111   7.684   9.128   2.638
27088SOL    HW286112   7.670   9.277   2.620
27089SOL     OW86113   7.497   8.015   2.964
27089SOL    HW186114   7.573   8.031   2.908
27089SOL    HW286115   7.527   8.039   3.051
27090SOL     OW86116   7.608   8.025   3.616
27090SOL    HW186117   7.676   7.960   3.600
27090SOL    HW286118   7.623   8.093   3.549
27091SOL     OW86119   8.831   8.367   3.529
27091SOL    HW186120   8.875   8.452   3.533
27091SOL    HW286121   8.823   8.349   3.435
27092SOL     OW86122   8.171   7.979   2.263
27092SOL    HW186123   8.209   8.019   2.342
27092SOL    HW286124   8.131   8.051   2.216
27093SOL     OW86125   7.634   8.945   3.565
27093SOL    HW186126   7.647   9.028   3.610
27093SOL    HW286127   7.655   8.878   3.631
27094SOL     OW86128   8.052   7.844   3.117
27094SOL    HW186129   8.135   7.797   3.106
27094SOL    HW286130   8.077   7.936   3.120
27095SOL     OW86131   8.323   9.110   3.334
27095SOL    HW186132   8.343   9.040   3.271
27095SOL    HW286133   8.378   9.183   3.308
27096SOL     OW86134   7.812   8.009   2.161
27096SOL    HW186135   7.896   8.054   2.151
27096SOL    HW286136   7.756   8.045   2.093
27097SOL     OW86137   7.566   8.490   3.347
27097SOL    HW186138   7.638   8.552   3.348
27097SOL    HW286139   7.562   8.459   3.257
27098SOL     OW86140   8.775   8.570   3.096
27098SOL    HW186141   8.870   8.576   3.102
27098SOL    HW286142   8.759   8.509   3.023
27099SOL     OW86143   8.765   8.330   2.153
27099SOL    HW186144   8.734   8.299   2.238
27099SOL    HW286145   8.725   8.270   2.090
27100SOL     OW86146   9.149   9.165   2.981
27100SOL    HW186147   9.225   9.220   3.001
27100SOL    HW286148   9.174   9.118   2.901
27101SOL     OW86149   8.666   9.198   2.949
27101SOL    HW186150   8.751   9.224   2.913
27101SOL    HW286151   8.675   9.104   2.966
27102SOL     OW86152   7.407   8.587   2.928
27102SOL    HW186153   7.420   8.663   2.985
27102SOL    HW286154   7.495   8.562   2.901
27103SOL     OW86155   8.128   9.132   3.616
27103SOL    HW186156   8.117   9.169   3.528
27103SOL    HW286157   8.191   9.062   3.604
27104SOL     OW86158   8.854   9.015   2.362
27104SOL    HW186159   8.914   9.049   2.295
27104SOL    HW286160   8.794   9.088   2.379
27105SOL     OW86161   7.600   9.208   3.678
27105SOL    HW186162   7.551   9.155   3.741
27105SOL    HW286163   7.657   9.263   3.732
27106SOL     OW86164   8.752   8.325   2.455
27106SOL    HW186165   8.831   8.292   2.499
27106SOL    HW286166   8.772   8.416   2.434
27107SOL     OW86167   8.125   9.062   1.933
27107SOL    HW186168   8.132   9.129   1.864
27107SOL    HW286169   8.112   9.112   2.013
27108SOL     OW86170   8.983   9.156   3.222
27108SOL    HW186171   9.037   9.154   3.143
27108SOL    HW286172   8.975   9.249   3.244
27109SOL     OW86173   9.292   7.640   2.931
27109SOL    HW186174   9.326   7.552   2.912
27109SOL    HW286175   9.206   7.642   2.889
27110SOL     OW86176   7.748   7.769   2.550
27110SOL    HW186177   7.838   7.800   2.548
27110SOL    HW286178   7.724   7.768   2.642
27111SOL     OW86179   8.649   9.017   1.894
27111SOL    HW186180   8.645   8.929   1.932
27111SOL    HW286181   8.580   9.018   1.827
27112SOL     OW86182   8.207   8.470   3.180
27112SOL    HW186183   8.252   8.448   3.262
27112SOL    HW286184   8.194   8.564   3.184
27113SOL     OW86185   8.349   8.370   2.220
27113SOL    HW186186   8.392   8.380   2.135
27113SOL    HW286187   8.392   8.295   2.260
27114SOL     OW86188   8.922   9.088   1.915
27114SOL    HW186189   8.832   9.066   1.895
27114SOL    HW286190   8.964   9.099   1.830
27115SOL     OW86191   7.777   8.671   3.275
27115SOL    HW186192   7.831   8.710   3.344
27115SOL    HW286193   7.837   8.659   3.201
27116SOL     OW86194   9.047   8.770   3.210
27116SOL    HW186195   9.112   8.770   3.281
27116SOL    HW286196   9.090   8.818   3.139
27117SOL     OW86197   8.427   7.659   2.836
27117SOL    HW186198   8.463   7.633   2.751
27117SOL    HW286199   8.441   7.583   2.892
27118SOL     OW86200   7.705   8.825   2.208
27118SOL    HW186201   7.625   8.803   2.161
27118SOL    HW286202   7.688   8.911   2.247
27119SOL     OW86203   7.533   8.495   3.725
27119SOL    HW186204   7.462   8.432   3.710
27119SOL    HW286205   7.612   8.449   3.695
27120SOL     OW86206   8.092   7.577   3.405
27120SOL    HW186207   8.176   7.580   3.360
27120SOL    HW286208   8.110   7.616   3.491
27121SOL     OW86209   7.492   7.799   1.957
27121SOL    HW186210   7.453   7.734   1.899
27121SOL    HW286211   7.563   7.837   1.906
27122SOL     OW86212   8.844   8.298   3.266
27122SOL    HW186213   8.767   8.260   3.223
27122SOL    HW286214   8.911   8.301   3.198
27123SOL     OW86215   7.676   7.744   2.163
27123SOL    HW186216   7.604   7.754   2.100
27123SOL    HW286217   7.755   7.748   2.109
27124SOL     OW86218   8.627   8.769   2.023
27124SOL    HW186219   8.535   8.753   2.042
27124SOL    HW286220   8.670   8.771   2.108
27125SOL     OW86221   8.021   8.274   3.269
27125SOL    HW186222   8.072   8.353   3.251
27125SOL    HW286223   8.069   8.203   3.226
27126SOL     OW86224   8.917   9.245   2.845
27126SOL    HW186225   8.951   9.321   2.796
27126SOL    HW286226   8.990   9.217   2.899
27127SOL     OW86227   8.140   7.967   3.676
27127SOL    HW186228   8.214   8.012   3.717
27127SOL    HW286229   8.150   7.985   3.582
27128SOL     OW86230   8.967   8.610   3.519
27128SOL    HW186231   8.940   8.658   3.598
27128SOL    HW286232   9.043   8.658   3.487
27129SOL     OW86233   7.821   9.282   3.450
27129SOL    HW186234   7.727   9.273   3.438
27129SOL    HW286235   7.858   9.198   3.424
27130SOL     OW86236   9.045   8.303   3.079
27130SOL    HW186237   9.131   8.267   3.099
27130SOL    HW286238   9.062   8.392   3.049
27131SOL     OW86239   8.632   7.718   2.294
27131SOL    HW186240   8.711   7.666   2.283
27131SOL    HW286241   8.642   7.761   2.379
27132SOL     OW86242   9.153   7.801   3.374
27132SOL    HW186243   9.181   7.892   3.363
27132SOL    HW286244   9.118   7.798   3.463
27133SOL     OW86245   9.172   8.329   3.400
27133SOL    HW186246   9.111   8.389   3.358
27133SOL    HW286247   9.213   8.281   3.327
27134SOL     OW86248   8.278   8.788   1.861
27134SOL    HW186249   8.313   8.786   1.951
27134SOL    HW286250   8.327   8.858   1.819
27135SOL     OW86251   8.475   8.370   1.964
27135SOL    HW186252   8.480   8.450   1.911
27135SOL    HW286253   8.557   8.325   1.947
27136SOL     OW86254   9.247   9.037   2.755
27136SOL    HW186255   9.182   9.018   2.688
27136SOL    HW286256   9.325   8.989   2.727
27137SOL     OW86257   7.671   8.741   3.747
27137SOL    HW186258   7.609   8.667   3.748
27137SOL    HW286259   7.684   8.761   3.840
27138SOL     OW86260   7.525   8.647   2.585
27138SOL    HW186261   7.610   8.605   2.593
27138SOL    HW286262   7.544   8.740   2.571
27139SOL     OW86263   8.019   8.746   3.431
27139SOL    HW186264   8.106   8.710   3.451
27139SOL    HW286265   8.037   8.822   3.375
27140SOL     OW86266   7.962   7.885   2.421
27140SOL    HW186267   8.033   7.897   2.357
27140SOL    HW286268   7.989   7.936   2.497
27141SOL     OW86269   9.116   8.854   2.953
27141SOL    HW186270   9.163   8.787   2.903
27141SOL    HW286271   9.179   8.926   2.962
27142SOL     OW86272   7.790   7.940   3.130
27142SOL    HW186273   7.881   7.918   3.149
27142SOL    HW286274   7.795   7.998   3.054
27143SOL     OW86275   8.868   7.653   3.038
27143SOL    HW186276   8.914   7.621   3.116
27143SOL    HW286277   8.806   7.718   3.072
27144SOL     OW86278   8.450   7.414   2.976
27144SOL    HW186279   8.412   7.364   2.904
27144SOL    HW286280   8.543   7.390   2.976
27145SOL     OW86281   8.363   8.766   2.126
27145SOL    HW186282   8.291   8.710   2.155
27145SOL    HW286283   8.385   8.819   2.203
27146SOL     OW86284   8.077   8.956   3.251
27146SOL    HW186285   8.129   9.032   3.277
27146SOL    HW286286   8.141   8.893   3.219
27147SOL     OW86287   8.767   7.496   2.026
27147SOL    HW186288   8.830   7.439   1.981
27147SOL    HW286289   8.811   7.581   2.032
27148SOL     OW86290   8.671   7.824   2.543
27148SOL    HW186291   8.664   7.919   2.551
27148SOL    HW286292   8.760   7.810   2.511
27149SOL     OW86293   9.045   7.650   2.814
27149SOL    HW186294   8.975   7.679   2.873
27149SOL    HW286295   9.046   7.716   2.744
27150SOL     OW86296   7.477   8.465   2.194
27150SOL    HW186297   7.571   8.475   2.181
27150SOL    HW286298   7.463   8.370   2.196
27151SOL     OW86299   7.586   8.033   3.895
27151SOL    HW186300   7.645   8.087   3.946
27151SOL    HW286301   7.612   8.049   3.804
27152SOL     OW86302   7.622   7.782   4.772
27152SOL    HW186303   7.659   7.730   4.843
27152SOL    HW286304   7.554   7.726   4.734
27153SOL     OW86305   7.447   7.837   4.382
27153SOL    HW186306   7.370   7.859   4.435
27153SOL    HW286307   7.416   7.771   4.321
27154SOL     OW86308   7.971   8.739   4.928
27154SOL    HW186309   7.898   8.774   4.877
27154SOL    HW286310   8.013   8.816   4.966
27155SOL     OW86311   9.025   8.947   4.437
27155SOL    HW186312   8.974   8.930   4.516
27155SOL    HW286313   8.960   8.957   4.368
27156SOL     OW86314   9.130   7.925   4.043
27156SOL    HW186315   9.200   7.961   3.989
27156SOL    HW286316   9.073   8.000   4.061
27157SOL     OW86317   8.152   8.577   4.794
27157SOL    HW186318   8.090   8.622   4.852
27157SOL    HW286319   8.193   8.648   4.743
27158SOL     OW86320   8.340   8.196   5.515
27158SOL    HW186321   8.362   8.259   5.583
27158SOL    HW286322   8.360   8.241   5.433
27159SOL     OW86323   8.127   8.451   4.381
27159SOL    HW186324   8.190   8.467   4.451
27159SOL    HW286325   8.053   8.509   4.402
27160SOL     OW86326   8.145   8.576   5.555
27160SOL    HW186327   8.179   8.655   5.596
27160SOL    HW286328   8.068   8.605   5.506
27161SOL     OW86329   7.789   8.907   4.783
27161SOL    HW186330   7.745   8.985   4.749
27161SOL    HW286331   7.874   8.907   4.739
27162SOL     OW86332   8.918   8.966   5.086
27162SOL    HW186333   8.983   9.033   5.106
27162SOL    HW286334   8.849   8.981   5.150
27163SOL     OW86335   7.929   7.807   5.170
27163SOL    HW186336   8.010   7.762   5.195
27163SOL    HW286337   7.859   7.752   5.207
27164SOL     OW86338   7.706   9.203   4.207
27164SOL    HW186339   7.698   9.294   4.235
27164SOL    HW286340   7.790   9.199   4.163
27165SOL     OW86341   8.533   8.804   5.438
27165SOL    HW186342   8.598   8.804   5.507
27165SOL    HW286343   8.499   8.715   5.436
27166SOL     OW86344   7.626   8.944   4.275
27166SOL    HW186345   7.646   9.037   4.261
27166SOL    HW286346   7.575   8.943   4.356
27167SOL     OW86347   7.691   8.528   4.598
27167SOL    HW186348   7.714   8.440   4.626
27167SOL    HW286349   7.647   8.567   4.673
27168SOL     OW86350   8.117   9.222   5.184
27168SOL    HW186351   8.108   9.316   5.165
27168SOL    HW286352   8.211   9.209   5.195
27169SOL     OW86353   8.030   8.446   3.932
27169SOL    HW186354   8.065   8.497   3.859
27169SOL    HW286355   8.092   8.462   4.004
27170SOL     OW86356   9.029   7.578   5.218
27170SOL    HW186357   9.071   7.655   5.179
27170SOL    HW286358   8.996   7.609   5.302
27171SOL     OW86359   7.516   8.093   4.276
27171SOL    HW186360   7.508   8.003   4.307
27171SOL    HW286361   7.526   8.145   4.356
27172SOL     OW86362   9.264   9.183   4.152
27172SOL    HW186363   9.354   9.154   4.168
27172SOL    HW286364   9.273   9.275   4.128
27173SOL     OW86365   7.482   9.036   3.855
27173SOL    HW186366   7.471   8.944   3.877
27173SOL    HW286367   7.475   9.082   3.939
27174SOL     OW86368   9.181   8.358   4.355
27174SOL    HW186369   9.228   8.304   4.292
27174SOL    HW286370   9.121   8.411   4.302
27175SOL     OW86371   9.055   8.556   4.183
27175SOL    HW186372   9.137   8.551   4.134
27175SOL    HW286373   9.076   8.610   4.259
27176SOL     OW86374   7.651   8.217   5.295
27176SOL    HW186375   7.746   8.226   5.300
27176SOL    HW286376   7.616   8.298   5.332
27177SOL     OW86377   8.099   8.792   4.415
27177SOL    HW186378   8.031   8.726   4.429
27177SOL    HW286379   8.072   8.836   4.334
27178SOL     OW86380   8.770   8.655   5.125
27178SOL    HW186381   8.841   8.661   5.061
27178SOL    HW286382   8.814   8.647   5.210
27179SOL     OW86383   8.279   7.455   4.223
27179SOL    HW186384   8.316   7.538   4.193
27179SOL    HW286385   8.186   7.473   4.237
27180SOL     OW86386   7.632   8.461   5.007
27180SOL    HW186387   7.708   8.402   5.004
27180SOL    HW286388   7.619   8.488   4.916
27181SOL     OW86389   8.884   8.531   3.958
27181SOL    HW186390   8.820   8.468   3.991
27181SOL    HW286391   8.951   8.536   4.026
27182SOL     OW86392   7.786   7.703   5.535
27182SOL    HW186393   7.835   7.775   5.574
27182SOL    HW286394   7.703   7.702   5.582
27183SOL     OW86395   8.907   8.857   4.676
27183SOL    HW186396   8.841   8.872   4.743
27183SOL    HW286397   8.886   8.770   4.641
27184SOL     OW86398   9.087   9.211   4.361
27184SOL    HW186399   9.155   9.198   4.295
27184SOL    HW286400   9.071   9.123   4.396
27185SOL     OW86401   7.989   8.169   3.970
27185SOL    HW186402   8.007   8.259   3.942
27185SOL    HW286403   7.956   8.178   4.060
27186SOL     OW86404   8.702   7.737   4.683
27186SOL    HW186405   8.721   7.823   4.647
27186SOL    HW286406   8.774   7.720   4.744
27187SOL     OW86407   9.049   9.076   4.014
27187SOL    HW186408   9.123   9.116   4.061
27187SOL    HW286409   9.090   9.013   3.954
27188SOL     OW86410   8.200   8.083   5.130
27188SOL    HW186411   8.190   8.048   5.218
27188SOL    HW286412   8.176   8.010   5.072
27189SOL     OW86413   8.838   7.909   5.398
27189SOL    HW186414   8.840   7.968   5.473
27189SOL    HW286415   8.887   7.832   5.428
27190SOL     OW86416   8.396   8.335   5.282
27190SOL    HW186417   8.443   8.263   5.239
27190SOL    HW286418   8.362   8.387   5.210
27191SOL     OW86419   8.425   7.863   4.969
27191SOL    HW186420   8.331   7.881   4.970
27191SOL    HW286421   8.439   7.817   4.886
27192SOL     OW86422   8.497   8.047   4.194
27192SOL    HW186423   8.545   8.031   4.275
27192SOL    HW286424   8.504   8.142   4.180
27193SOL     OW86425   7.534   8.238   4.504
27193SOL    HW186426   7.611   8.251   4.560
27193SOL    HW286427   7.472   8.304   4.534
27194SOL     OW86428   7.720   9.235   5.285
27194SOL    HW186429   7.659   9.217   5.356
27194SOL    HW286430   7.707   9.328   5.265
27195SOL     OW86431   8.401   7.819   3.863
27195SOL    HW186432   8.398   7.900   3.812
27195SOL    HW286433   8.417   7.751   3.798
27196SOL     OW86434   9.111   8.030   5.575
27196SOL    HW186435   9.100   8.106   5.518
27196SOL    HW286436   9.145   7.961   5.518
27197SOL     OW86437   8.799   8.592   4.283
27197SOL    HW186438   8.880   8.580   4.233
27197SOL    HW286439   8.750   8.659   4.234
27198SOL     OW86440   7.927   7.812   4.581
27198SOL    HW186441   7.948   7.777   4.667
27198SOL    HW286442   8.012   7.819   4.536
27199SOL     OW86443   8.478   8.960   4.257
27199SOL    HW186444   8.423   9.023   4.211
27199SOL    HW286445   8.516   9.010   4.330
27200SOL     OW86446   9.227   8.419   4.621
27200SOL    HW186447   9.209   8.412   4.527
27200SOL    HW286448   9.146   8.454   4.659
27201SOL     OW86449   8.693   9.011   5.240
27201SOL    HW186450   8.658   8.960   5.313
27201SOL    HW286451   8.677   9.102   5.265
27202SOL     OW86452   7.754   8.437   3.955
27202SOL    HW186453   7.849   8.446   3.961
27202SOL    HW286454   7.737   8.410   3.865
27203SOL     OW86455   7.933   8.716   5.457
27203SOL    HW186456   7.873   8.737   5.385
27203SOL    HW286457   7.904   8.772   5.529
27204SOL     OW86458   7.692   7.685   5.272
27204SOL    HW186459   7.636   7.762   5.271
27204SOL    HW286460   7.727   7.682   5.361
27205SOL     OW86461   9.130   8.802   3.861
27205SOL    HW186462   9.166   8.875   3.810
27205SOL    HW286463   9.049   8.779   3.815
27206SOL     OW86464   7.972   9.210   4.122
27206SOL    HW186465   8.031   9.280   4.149
27206SOL    HW286466   7.997   9.189   4.032
27207SOL     OW86467   8.856   7.557   4.244
27207SOL    HW186468   8.834   7.535   4.153
27207SOL    HW286469   8.950   7.541   4.251
27208SOL     OW86470   7.682   9.217   4.935
27208SOL    HW186471   7.747   9.160   4.978
27208SOL    HW286472   7.722   9.240   4.851
27209SOL     OW86473   8.363   9.167   4.608
27209SOL    HW186474   8.449   9.134   4.583
27209SOL    HW286475   8.303   9.131   4.542
27210SOL     OW86476   7.874   8.141   4.224
27210SOL    HW186477   7.857   8.047   4.214
27210SOL    HW286478   7.791   8.177   4.254
27211SOL     OW86479   8.954   7.668   5.492
27211SOL    HW186480   8.954   7.698   5.583
27211SOL    HW286481   8.904   7.587   5.493
27212SOL     OW86482   8.034   7.540   3.834
27212SOL    HW186483   8.097   7.588   3.780
27212SOL    HW286484   7.974   7.501   3.771
27213SOL     OW86485   8.217   7.692   5.539
27213SOL    HW186486   8.296   7.640   5.523
27213SOL    HW286487   8.238   7.744   5.617
27214SOL     OW86488   8.306   8.893   4.896
27214SOL    HW186489   8.295   8.867   4.805
27214SOL    HW286490   8.400   8.881   4.913
27215SOL     OW86491   8.771   8.028   5.157
27215SOL    HW186492   8.811   8.004   5.240
27215SOL    HW286493   8.810   8.113   5.136
27216SOL     OW86494   8.255   8.789   4.640
27216SOL    HW186495   8.349   8.793   4.623
27216SOL    HW286496   8.216   8.778   4.553
27217SOL     OW86497   8.410   7.905   4.556
27217SOL    HW186498   8.494   7.924   4.515
27217SOL    HW286499   8.428   7.833   4.617
27218SOL     OW86500   8.004   7.510   4.234
27218SOL    HW186501   7.925   7.507   4.287
27218SOL    HW286502   7.997   7.593   4.186
27219SOL     OW86503   8.876   8.723   3.762
27219SOL    HW186504   8.889   8.649   3.821
27219SOL    HW286505   8.789   8.757   3.783
27220SOL     OW86506   7.739   7.523   3.938
27220SOL    HW186507   7.800   7.594   3.917
27220SOL    HW286508   7.795   7.454   3.975
27221SOL     OW86509   8.368   7.706   4.134
27221SOL    HW186510   8.353   7.743   4.048
27221SOL    HW286511   8.457   7.735   4.158
27222SOL     OW86512   8.508   8.113   5.157
27222SOL    HW186513   8.471   8.036   5.113
27222SOL    HW286514   8.602   8.097   5.158
27223SOL     OW86515   8.607   9.074   4.506
27223SOL    HW186516   8.648   9.127   4.438
27223SOL    HW286517   8.651   9.100   4.587
27224SOL     OW86518   7.898   8.603   4.425
27224SOL    HW186519   7.833   8.585   4.494
27224SOL    HW286520   7.848   8.598   4.344
27225SOL     OW86521   8.692   9.250   4.306
27225SOL    HW186522   8.737   9.293   4.233
27225SOL    HW286523   8.641   9.319   4.348
27226SOL     OW86524   8.419   8.058   3.716
27226SOL    HW186525   8.392   8.102   3.636
27226SOL    HW286526   8.502   8.099   3.740
27227SOL     OW86527   7.566   8.026   5.113
27227SOL    HW186528   7.656   8.018   5.082
27227SOL    HW286529   7.567   8.103   5.170
27228SOL     OW86530   7.958   7.720   4.847
27228SOL    HW186531   7.991   7.635   4.815
27228SOL    HW286532   7.886   7.697   4.905
27229SOL     OW86533   8.211   7.917   4.333
27229SOL    HW186534   8.188   7.943   4.244
27229SOL    HW286535   8.284   7.856   4.321
27230SOL     OW86536   8.418   7.338   4.444
27230SOL    HW186537   8.378   7.369   4.363
27230SOL    HW286538   8.360   7.371   4.513
27231SOL     OW86539   8.902   8.611   4.548
27231SOL    HW186540   8.839   8.592   4.479
27231SOL    HW286541   8.984   8.629   4.502
27232SOL     OW86542   8.979   8.040   4.747
27232SOL    HW186543   8.901   8.005   4.706
27232SOL    HW286544   9.000   8.119   4.697
27233SOL     OW86545   9.300   8.214   4.135
27233SOL    HW186546   9.379   8.229   4.083
27233SOL    HW286547   9.228   8.241   4.078
27234SOL     OW86548   7.954   8.868   3.903
27234SOL    HW186549   7.879   8.834   3.952
27234SOL    HW286550   8.019   8.797   3.905
27235SOL     OW86551   9.129   8.688   4.412
27235SOL    HW186552   9.224   8.680   4.402
27235SOL    HW286553   9.113   8.782   4.413
27236SOL     OW86554   8.820   8.054   3.854
27236SOL    HW186555   8.750   8.002   3.894
27236SOL    HW286556   8.876   8.080   3.927
27237SOL     OW86557   7.974   7.706   4.040
27237SOL    HW186558   8.009   7.641   3.979
27237SOL    HW286559   7.996   7.790   4.000
27238SOL     OW86560   9.230   8.673   5.267
27238SOL    HW186561   9.317   8.635   5.268
27238SOL    HW286562   9.242   8.763   5.298
27239SOL     OW86563   8.539   8.768   5.032
27239SOL    HW186564   8.473   8.769   5.101
27239SOL    HW286565   8.616   8.730   5.073
27240SOL     OW86566   9.081   9.025   5.371
27240SOL    HW186567   9.080   9.084   5.296
27240SOL    HW286568   9.169   8.986   5.369
27241SOL     OW86569   8.522   8.590   4.817
27241SOL    HW186570   8.531   8.652   4.890
27241SOL    HW286571   8.536   8.644   4.739
27242SOL     OW86572   9.020   8.526   4.782
27242SOL    HW186573   9.004   8.596   4.845
27242SOL    HW286574   8.965   8.548   4.707
27243SOL     OW86575   8.346   7.510   5.126
27243SOL    HW186576   8.362   7.497   5.033
27243SOL    HW286577   8.428   7.545   5.160
27244SOL     OW86578   8.407   8.556   5.455
27244SOL    HW186579   8.313   8.557   5.475
27244SOL    HW286580   8.416   8.485   5.391
27245SOL     OW86581   8.217   8.494   4.125
27245SOL    HW186582   8.195   8.475   4.216
27245SOL    HW286583   8.296   8.443   4.108
27246SOL     OW86584   7.855   8.294   5.004
27246SOL    HW186585   7.927   8.311   5.064
27246SOL    HW286586   7.839   8.200   5.012
27247SOL     OW86587   8.688   7.798   5.037
27247SOL    HW186588   8.726   7.878   5.073
27247SOL    HW286589   8.601   7.823   5.006
27248SOL     OW86590   7.530   9.010   5.089
27248SOL    HW186591   7.513   9.091   5.040
27248SOL    HW286592   7.625   9.004   5.092
27249SOL     OW86593   7.735   8.583   4.198
27249SOL    HW186594   7.734   8.665   4.149
27249SOL    HW286595   7.744   8.515   4.131
27250SOL     OW86596   8.682   8.809   4.149
27250SOL    HW186597   8.751   8.874   4.165
27250SOL    HW286598   8.603   8.848   4.185
27251SOL     OW86599   8.735   8.918   4.888
27251SOL    HW186600   8.799   8.938   4.956
27251SOL    HW286601   8.664   8.873   4.934
27252SOL     OW86602   7.802   8.972   5.049
27252SOL    HW186603   7.784   8.946   4.958
27252SOL    HW286604   7.897   8.985   5.052
27253SOL     OW86605   7.924   8.204   5.363
27253SOL    HW186606   7.969   8.262   5.301
27253SOL    HW286607   7.990   8.139   5.386
27254SOL     OW86608   9.066   8.242   5.406
27254SOL    HW186609   8.978   8.276   5.391
27254SOL    HW286610   9.121   8.285   5.341
27255SOL     OW86611   8.452   7.566   5.502
27255SOL    HW186612   8.508   7.640   5.479
27255SOL    HW286613   8.500   7.489   5.471
27256SOL     OW86614   7.952   7.501   5.424
27256SOL    HW186615   8.010   7.556   5.372
27256SOL    HW286616   7.903   7.562   5.479
27257SOL     OW86617   8.008   8.336   4.771
27257SOL    HW186618   8.060   8.417   4.772
27257SOL    HW286619   7.962   8.336   4.855
27258SOL     OW86620   8.693   8.227   4.636
27258SOL    HW186621   8.711   8.274   4.555
27258SOL    HW286622   8.720   8.137   4.619
27259SOL     OW86623   8.626   7.913   3.986
27259SOL    HW186624   8.555   7.870   3.939
27259SOL    HW286625   8.583   7.967   4.052
27260SOL     OW86626   7.719   7.633   4.985
27260SOL    HW186627   7.711   7.650   5.079
27260SOL    HW286628   7.725   7.538   4.978
27261SOL     OW86629   7.419   8.763   5.026
27261SOL    HW186630   7.449   8.704   5.096
27261SOL    HW286631   7.457   8.848   5.048
27262SOL     OW86632   8.160   8.105   4.733
27262SOL    HW186633   8.233   8.136   4.787
27262SOL    HW286634   8.098   8.177   4.731
27263SOL     OW86635   9.183   8.377   5.620
27263SOL    HW186636   9.128   8.331   5.557
27263SOL    HW286637   9.122   8.408   5.687
27264SOL     OW86638   7.754   7.474   4.368
27264SOL    HW186639   7.730   7.566   4.374
27264SOL    HW286640   7.765   7.445   4.459
27265SOL     OW86641   8.418   8.206   4.632
27265SOL    HW186642   8.413   8.196   4.727
27265SOL    HW286643   8.512   8.206   4.613
27266SOL     OW86644   8.340   8.996   5.416
27266SOL    HW186645   8.366   9.059   5.348
27266SOL    HW286646   8.414   8.935   5.421
27267SOL     OW86647   9.333   8.926   5.307
27267SOL    HW186648   9.369   8.959   5.225
27267SOL    HW286649   9.391   8.960   5.375
27268SOL     OW86650   7.800   8.310   5.591
27268SOL    HW186651   7.876   8.338   5.643
27268SOL    HW286652   7.839   8.272   5.512
27269SOL     OW86653   8.674   8.246   3.724
27269SOL    HW186654   8.737   8.181   3.756
27269SOL    HW286655   8.722   8.294   3.656
27270SOL     OW86656   8.524   8.809   4.605
27270SOL    HW186657   8.546   8.735   4.547
27270SOL    HW286658   8.566   8.884   4.564
27271SOL     OW86659   7.758   8.268   4.671
27271SOL    HW186660   7.848   8.295   4.687
27271SOL    HW286661   7.755   8.177   4.701
27272SOL     OW86662   7.792   7.997   4.741
27272SOL    HW186663   7.727   7.927   4.746
27272SOL    HW286664   7.855   7.967   4.676
27273SOL     OW86665   8.587   7.793   5.421
27273SOL    HW186666   8.541   7.855   5.477
27273SOL    HW286667   8.670   7.837   5.401
27274SOL     OW86668   8.592   7.608   5.216
27274SOL    HW186669   8.585   7.674   5.284
27274SOL    HW286670   8.633   7.654   5.143
27275SOL     OW86671   7.436   8.777   3.955
27275SOL    HW186672   7.348   8.793   3.922
27275SOL    HW286673   7.437   8.684   3.977
27276SOL     OW86674   7.496   9.206   4.646
27276SOL    HW186675   7.476   9.143   4.577
27276SOL    HW286676   7.590   9.197   4.661
27277SOL     OW86677   8.030   8.956   4.670
27277SOL    HW186678   8.065   9.031   4.719
27277SOL    HW286679   8.105   8.898   4.657
27278SOL     OW86680   8.366   8.196   4.907
27278SOL    HW186681   8.452   8.230   4.929
27278SOL    HW286682   8.329   8.168   4.991
27279SOL     OW86683   7.457   7.984   4.862
27279SOL    HW186684   7.518   7.923   4.819
27279SOL    HW286685   7.503   8.012   4.941
27280SOL     OW86686   7.689   7.973   5.412
27280SOL    HW186687   7.782   7.965   5.393
27280SOL    HW286688   7.661   8.051   5.364
27281SOL     OW86689   8.826   8.365   5.352
27281SOL    HW186690   8.858   8.455   5.350
27281SOL    HW286691   8.812   8.342   5.260
27282SOL     OW86692   8.180   7.988   4.066
27282SOL    HW186693   8.270   8.013   4.047
27282SOL    HW286694   8.127   8.056   4.023
27283SOL     OW86695   9.179   8.008   4.949
27283SOL    HW186696   9.102   8.010   4.892
27283SOL    HW286697   9.253   8.012   4.889
27284SOL     OW86698   7.819   9.031   5.477
27284SOL    HW186699   7.735   9.075   5.491
27284SOL    HW286700   7.831   8.977   5.556
27285SOL     OW86701   8.150   7.903   4.928
27285SOL    HW186702   8.085   7.836   4.907
27285SOL    HW286703   8.149   7.962   4.853
27286SOL     OW86704   8.393   9.175   5.216
27286SOL    HW186705   8.443   9.143   5.141
27286SOL    HW286706   8.454   9.230   5.265
27287SOL     OW86707   7.892   7.916   3.851
27287SOL    HW186708   7.970   7.960   3.816
27287SOL    HW286709   7.869   7.967   3.928
27288SOL     OW86710   7.493   8.562   5.216
27288SOL    HW186711   7.542   8.540   5.295
27288SOL    HW286712   7.546   8.528   5.145
27289SOL     OW86713   8.643   8.344   4.884
27289SOL    HW186714   8.671   8.307   4.800
27289SOL    HW286715   8.609   8.431   4.862
27290SOL     OW86716   8.709   8.324   4.033
27290SOL    HW186717   8.747   8.270   4.102
27290SOL    HW286718   8.734   8.281   3.951
27291SOL     OW86719   9.185   9.160   4.856
27291SOL    HW186720   9.258   9.199   4.808
27291SOL    HW286721   9.179   9.071   4.823
27292SOL     OW86722   8.706   9.158   4.753
27292SOL    HW186723   8.790   9.204   4.755
27292SOL    HW286724   8.722   9.077   4.801
27293SOL     OW86725   7.534   8.645   4.792
27293SOL    HW186726   7.497   8.666   4.878
27293SOL    HW286727   7.526   8.727   4.743
27294SOL     OW86728   8.139   9.171   5.497
27294SOL    HW186729   8.170   9.261   5.497
27294SOL    HW286730   8.216   9.119   5.472
27295SOL     OW86731   9.135   7.614   4.211
27295SOL    HW186732   9.194   7.628   4.136
27295SOL    HW286733   9.151   7.523   4.237
27296SOL     OW86734   8.860   9.015   4.221
27296SOL    HW186735   8.925   9.036   4.154
27296SOL    HW286736   8.817   9.098   4.240
27297SOL     OW86737   7.588   9.170   5.529
27297SOL    HW186738   7.517   9.130   5.579
27297SOL    HW286739   7.627   9.233   5.589
27298SOL     OW86740   8.712   8.359   4.394
27298SOL    HW186741   8.735   8.283   4.340
27298SOL    HW286742   8.747   8.434   4.347
27299SOL     OW86743   8.252   8.760   5.133
27299SOL    HW186744   8.192   8.811   5.188
27299SOL    HW286745   8.258   8.811   5.052
27300SOL     OW86746   8.063   9.118   3.879
27300SOL    HW186747   8.090   9.125   3.787
27300SOL    HW286748   8.025   9.031   3.886
27301SOL     OW86749   9.130   9.162   5.130
27301SOL    HW186750   9.150   9.167   5.036
27301SOL    HW286751   9.213   9.180   5.173
27302SOL     OW86752   9.307   7.602   4.703
27302SOL    HW186753   9.333   7.524   4.654
27302SOL    HW286754   9.222   7.626   4.667
27303SOL     OW86755   7.713   7.740   4.413
27303SOL    HW186756   7.630   7.785   4.427
27303SOL    HW286757   7.771   7.774   4.481
27304SOL     OW86758   8.679   9.072   3.879
27304SOL    HW186759   8.667   8.977   3.875
27304SOL    HW286760   8.617   9.107   3.816
27305SOL     OW86761   8.279   8.491   5.083
27305SOL    HW186762   8.304   8.494   4.991
27305SOL    HW286763   8.270   8.583   5.108
27306SOL     OW86764   8.433   8.336   4.049
27306SOL    HW186765   8.419   8.345   3.955
27306SOL    HW286766   8.528   8.346   4.060
27307SOL     OW86767   8.943   9.065   3.708
27307SOL    HW186768   8.934   8.974   3.682
27307SOL    HW286769   9.000   9.104   3.641
27308SOL     OW86770   7.779   8.757   5.232
27308SOL    HW186771   7.781   8.842   5.188
27308SOL    HW286772   7.811   8.695   5.166
27309SOL     OW86773   8.999   8.725   4.978
27309SOL    HW186774   9.094   8.728   4.991
27309SOL    HW286775   8.967   8.808   5.014
27310SOL     OW86776   8.542   8.566   4.486
27310SOL    HW186777   8.459   8.523   4.506
27310SOL    HW286778   8.597   8.496   4.450
27311SOL     OW86779   8.444   7.703   4.745
27311SOL    HW186780   8.536   7.706   4.717
27311SOL    HW286781   8.434   7.617   4.785
27312SOL     OW86782   8.008   8.942   4.205
27312SOL    HW186783   8.061   8.888   4.146
27312SOL    HW286784   7.998   9.026   4.159
27313SOL     OW86785   9.186   7.796   5.132
27313SOL    HW186786   9.171   7.877   5.084
27313SOL    HW286787   9.215   7.733   5.066
27314SOL     OW86788   7.696   8.808   4.039
27314SOL    HW186789   7.604   8.806   4.013
27314SOL    HW286790   7.697   8.862   4.118
27315SOL     OW86791   7.594   8.443   5.449
27315SOL    HW186792   7.515   8.433   5.501
27315SOL    HW286793   7.665   8.416   5.507
27316SOL     OW86794   8.137   7.640   5.267
27316SOL    HW186795   8.211   7.607   5.217
27316SOL    HW286796   8.175   7.672   5.349
27317SOL     OW86797   7.492   7.788   3.796
27317SOL    HW186798   7.564   7.758   3.742
27317SOL    HW286799   7.527   7.865   3.841
27318SOL     OW86800   8.835   8.288   5.086
27318SOL    HW186801   8.769   8.313   5.021
27318SOL    HW286802   8.919   8.307   5.044
27319SOL     OW86803   7.480   7.584   3.999
27319SOL    HW186804   7.462   7.651   3.932
27319SOL    HW286805   7.573   7.564   3.990
27320SOL     OW86806   8.626   8.801   3.873
27320SOL    HW186807   8.532   8.788   3.864
27320SOL    HW286808   8.645   8.783   3.965
27321SOL     OW86809   8.075   8.322   5.163
27321SOL    HW186810   8.136   8.393   5.144
27321SOL    HW286811   8.127   8.242   5.150
27322SOL     OW86812   8.951   9.290   4.766
27322SOL    HW186813   8.983   9.345   4.695
27322SOL    HW286814   9.029   9.248   4.801
27323SOL     OW86815   8.142   8.032   5.409
27323SOL    HW186816   8.207   8.092   5.447
27323SOL    HW286817   8.157   7.949   5.455
27324SOL     OW86818   8.948   8.613   5.339
27324SOL    HW186819   8.930   8.631   5.432
27324SOL    HW286820   9.036   8.650   5.325
27325SOL     OW86821   9.085   8.334   4.969
27325SOL    HW186822   9.126   8.260   4.924
27325SOL    HW286823   9.069   8.398   4.900
27326SOL     OW86824   8.085   8.185   4.411
27326SOL    HW186825   8.097   8.279   4.399
27326SOL    HW286826   8.019   8.160   4.346
27327SOL     OW86827   9.185   7.811   5.420
27327SOL    HW186828   9.181   7.821   5.325
27327SOL    HW286829   9.110   7.755   5.441
27328SOL     OW86830   9.203   8.393   5.211
27328SOL    HW186831   9.186   8.485   5.231
27328SOL    HW286832   9.158   8.378   5.128
27329SOL     OW86833   8.342   8.802   3.829
27329SOL    HW186834   8.274   8.738   3.810
27329SOL    HW286835   8.344   8.858   3.752
27330SOL     OW86836   8.142   9.179   4.777
27330SOL    HW186837   8.118   9.267   4.806
27330SOL    HW286838   8.225   9.191   4.729
27331SOL     OW86839   8.306   8.452   4.587
27331SOL    HW186840   8.349   8.369   4.606
27331SOL    HW286841   8.278   8.485   4.672
27332SOL     OW86842   8.437   8.376   3.771
27332SOL    HW186843   8.444   8.464   3.735
27332SOL    HW286844   8.523   8.337   3.755
27333SOL     OW86845   9.288   8.982   4.524
27333SOL    HW186846   9.204   8.980   4.479
27333SOL    HW286847   9.270   8.947   4.611
27334SOL     OW86848   7.629   8.740   5.580
27334SOL    HW186849   7.658   8.692   5.502
27334SOL    HW286850   7.710   8.775   5.618
27335SOL     OW86851   7.524   8.603   4.393
27335SOL    HW186852   7.585   8.582   4.463
27335SOL    HW286853   7.577   8.604   4.314
27336SOL     OW86854   8.093   8.908   5.322
27336SOL    HW186855   8.056   8.839   5.376
27336SOL    HW286856   8.176   8.931   5.364
27337SOL     OW86857   9.290   7.600   4.975
27337SOL    HW186858   9.292   7.504   4.983
27337SOL    HW286859   9.293   7.616   4.881
27338SOL     OW86860   7.813   7.876   4.191
27338SOL    HW186861   7.870   7.812   4.146
27338SOL    HW286862   7.775   7.827   4.264
27339SOL     OW86863   9.170   8.900   4.762
27339SOL    HW186864   9.080   8.878   4.740
27339SOL    HW286865   9.191   8.845   4.837
27340SOL     OW86866   7.822   8.016   5.020
27340SOL    HW186867   7.875   7.948   5.062
27340SOL    HW286868   7.833   8.001   4.926
27341SOL     OW86869   8.210   9.058   4.406
27341SOL    HW186870   8.241   9.081   4.318
27341SOL    HW286871   8.203   8.963   4.404
27342SOL     OW86872   8.889   7.687   4.881
27342SOL    HW186873   8.898   7.601   4.923
27342SOL    HW286874   8.829   7.735   4.937
27343SOL     OW86875   8.426   7.454   4.864
27343SOL    HW186876   8.365   7.424   4.797
27343SOL    HW286877   8.507   7.407   4.845
27344SOL     OW86878   8.181   8.769   4.076
27344SOL    HW186879   8.198   8.677   4.099
27344SOL    HW286880   8.257   8.794   4.024
27345SOL     OW86881   8.073   8.993   5.016
27345SOL    HW186882   8.092   9.070   5.071
27345SOL    HW286883   8.149   8.986   4.959
27346SOL     OW86884   8.801   7.543   3.980
27346SOL    HW186885   8.863   7.522   3.910
27346SOL    HW286886   8.724   7.490   3.961
27347SOL     OW86887   9.038   7.653   4.649
27347SOL    HW186888   8.997   7.690   4.727
27347SOL    HW286889   9.039   7.725   4.585
27348SOL     OW86890   7.467   8.513   4.032
27348SOL    HW186891   7.554   8.508   3.993
27348SOL    HW286892   7.447   8.423   4.058
27349SOL     OW86893   8.285   9.138   4.153
27349SOL    HW186894   8.271   9.130   4.058
27349SOL    HW286895   8.259   9.228   4.173
27350SOL     OW86896   7.613   8.040   5.668
27350SOL    HW186897   7.629   8.134   5.678
27350SOL    HW286898   7.631   8.022   5.576
27351SOL     OW86899   7.649   7.730   6.601
27351SOL    HW186900   7.677   7.708   6.689
27351SOL    HW286901   7.560   7.695   6.594
27352SOL     OW86902   7.450   7.855   6.232
27352SOL    HW186903   7.416   7.784   6.178
27352SOL    HW286904   7.534   7.821   6.264
27353SOL     OW86905   7.984   8.717   6.808
27353SOL    HW186906   7.950   8.774   6.739
27353SOL    HW286907   8.073   8.749   6.823
27354SOL     OW86908   9.024   8.944   6.294
27354SOL    HW186909   8.960   8.939   6.365
27354SOL    HW286910   8.975   8.976   6.219
27355SOL     OW86911   8.577   8.134   6.250
27355SOL    HW186912   8.615   8.221   6.262
27355SOL    HW286913   8.512   8.127   6.320
27356SOL     OW86914   9.274   8.019   5.795
27356SOL    HW186915   9.215   8.037   5.723
27356SOL    HW286916   9.225   7.960   5.853
27357SOL     OW86917   8.267   8.210   7.362
27357SOL    HW186918   8.291   8.267   7.435
27357SOL    HW286919   8.279   8.265   7.284
27358SOL     OW86920   8.147   8.414   6.371
27358SOL    HW186921   8.208   8.457   6.311
27358SOL    HW286922   8.067   8.466   6.365
27359SOL     OW86923   8.080   8.619   7.489
27359SOL    HW186924   8.158   8.673   7.477
27359SOL    HW286925   8.038   8.619   7.402
27360SOL     OW86926   7.894   8.905   6.626
27360SOL    HW186927   7.846   8.877   6.548
27360SOL    HW286928   7.947   8.979   6.596
27361SOL     OW86929   8.881   8.962   6.933
27361SOL    HW186930   8.944   9.032   6.950
27361SOL    HW286931   8.805   8.985   6.987
27362SOL     OW86932   8.032   7.895   6.994
27362SOL    HW186933   8.099   7.956   6.961
27362SOL    HW286934   8.081   7.833   7.048
27363SOL     OW86935   9.028   7.876   6.349
27363SOL    HW186936   8.955   7.890   6.289
27363SOL    HW286937   9.020   7.945   6.414
27364SOL     OW86938   7.687   9.172   6.049
27364SOL    HW186939   7.716   9.236   6.113
27364SOL    HW286940   7.759   9.166   5.986
27365SOL     OW86941   8.651   8.833   7.256
27365SOL    HW186942   8.683   8.785   7.333
27365SOL    HW286943   8.660   8.771   7.183
27366SOL     OW86944   7.656   8.942   6.200
27366SOL    HW186945   7.668   9.022   6.149
27366SOL    HW286946   7.738   8.933   6.249
27367SOL     OW86947   7.697   8.539   6.524
27367SOL    HW186948   7.705   8.444   6.519
27367SOL    HW286949   7.781   8.572   6.491
27368SOL     OW86950   8.049   9.386   6.968
27368SOL    HW186951   8.001   9.322   7.020
27368SOL    HW286952   8.137   9.348   6.959
27369SOL     OW86953   8.025   8.390   5.729
27369SOL    HW186954   8.076   8.440   5.664
27369SOL    HW286955   8.049   8.430   5.812
27370SOL     OW86956   9.051   7.572   7.042
27370SOL    HW186957   9.091   7.584   6.956
27370SOL    HW286958   9.048   7.660   7.079
27371SOL     OW86959   7.561   8.106   6.133
27371SOL    HW186960   7.526   8.020   6.154
27371SOL    HW286961   7.543   8.159   6.212
27372SOL     OW86962   7.419   9.037   5.701
27372SOL    HW186963   7.430   8.945   5.724
27372SOL    HW286964   7.437   9.084   5.783
27373SOL     OW86965   9.123   8.316   6.206
27373SOL    HW186966   9.172   8.353   6.279
27373SOL    HW286967   9.125   8.385   6.139
27374SOL     OW86968   9.090   8.543   6.033
27374SOL    HW186969   9.176   8.544   5.990
27374SOL    HW286970   9.100   8.602   6.107
27375SOL     OW86971   7.606   8.225   7.134
27375SOL    HW186972   7.674   8.255   7.073
27375SOL    HW286973   7.588   8.300   7.190
27376SOL     OW86974   8.717   8.664   7.029
27376SOL    HW186975   8.731   8.602   6.957
27376SOL    HW286976   8.796   8.658   7.083
27377SOL     OW86977   8.189   7.405   5.936
27377SOL    HW186978   8.273   7.442   5.963
27377SOL    HW286979   8.192   7.315   5.966
27378SOL     OW86980   7.621   8.466   6.838
27378SOL    HW186981   7.680   8.398   6.869
27378SOL    HW286982   7.657   8.494   6.754
27379SOL     OW86983   8.969   8.446   5.798
27379SOL    HW186984   8.899   8.389   5.830
27379SOL    HW286985   9.011   8.481   5.877
27380SOL     OW86986   7.785   7.685   7.390
27380SOL    HW186987   7.841   7.750   7.431
27380SOL    HW286988   7.699   7.699   7.429
27381SOL     OW86989   8.879   8.870   6.527
27381SOL    HW186990   8.811   8.876   6.594
27381SOL    HW286991   8.877   8.777   6.501
27382SOL     OW86992   9.225   9.222   6.063
27382SOL    HW186993   9.185   9.168   5.996
27382SOL    HW286994   9.305   9.174   6.088
27383SOL     OW86995   8.016   8.127   5.841
27383SOL    HW186996   8.029   8.215   5.804
27383SOL    HW286997   7.966   8.143   5.922
27384SOL     OW86998   8.728   7.845   6.530
27384SOL    HW186999   8.640   7.817   6.553
27384SOL    HW287000   8.785   7.794   6.589
27385SOL     OW87001   9.020   9.088   5.851
27385SOL    HW187002   9.112   9.071   5.832
27385SOL    HW287003   8.980   9.102   5.765
27386SOL     OW87004   8.807   7.928   7.261
27386SOL    HW187005   8.821   7.973   7.345
27386SOL    HW287006   8.867   7.853   7.264
27387SOL     OW87007   8.440   7.837   6.798
27387SOL    HW187008   8.373   7.900   6.824
27387SOL    HW287009   8.418   7.815   6.707
27388SOL     OW87010   8.504   8.163   5.985
27388SOL    HW187011   8.529   8.148   6.076
27388SOL    HW287012   8.422   8.116   5.975
27389SOL     OW87013   7.495   8.258   6.350
27389SOL    HW187014   7.577   8.259   6.398
27389SOL    HW287015   7.438   8.319   6.397
27390SOL     OW87016   7.608   9.301   7.161
27390SOL    HW187017   7.622   9.304   7.256
27390SOL    HW287018   7.615   9.393   7.133
27391SOL     OW87019   8.362   7.780   5.773
27391SOL    HW187020   8.403   7.849   5.721
27391SOL    HW287021   8.425   7.708   5.772
27392SOL     OW87022   9.116   8.035   7.435
27392SOL    HW187023   9.109   8.115   7.383
27392SOL    HW287024   9.155   7.971   7.376
27393SOL     OW87025   8.820   8.584   6.131
27393SOL    HW187026   8.905   8.567   6.091
27393SOL    HW287027   8.783   8.656   6.081
27394SOL     OW87028   7.986   7.613   6.538
27394SOL    HW187029   7.987   7.637   6.631
27394SOL    HW287030   8.020   7.691   6.493
27395SOL     OW87031   8.482   8.931   6.059
27395SOL    HW187032   8.440   9.005   6.016
27395SOL    HW287033   8.518   8.968   6.140
27396SOL     OW87034   7.792   9.262   6.514
27396SOL    HW187035   7.859   9.195   6.498
27396SOL    HW287036   7.841   9.344   6.516
27397SOL     OW87037   9.230   8.432   6.436
27397SOL    HW187038   9.279   8.507   6.403
27397SOL    HW287039   9.187   8.464   6.515
27398SOL     OW87040   8.626   9.020   7.050
27398SOL    HW187041   8.630   8.966   7.129
27398SOL    HW287042   8.541   9.065   7.057
27399SOL     OW87043   7.776   8.509   5.883
27399SOL    HW187044   7.869   8.517   5.903
27399SOL    HW287045   7.773   8.462   5.799
27400SOL     OW87046   8.896   8.213   6.311
27400SOL    HW187047   8.918   8.157   6.386
27400SOL    HW287048   8.981   8.246   6.281
27401SOL     OW87049   7.855   8.597   7.306
27401SOL    HW187050   7.863   8.625   7.215
27401SOL    HW287051   7.801   8.664   7.348
27402SOL     OW87052   8.565   9.190   5.829
27402SOL    HW187053   8.477   9.166   5.857
27402SOL    HW287054   8.587   9.125   5.763
27403SOL     OW87055   7.656   7.724   7.141
27403SOL    HW187056   7.648   7.818   7.155
27403SOL    HW287057   7.717   7.695   7.209
27404SOL     OW87058   9.078   8.812   5.659
27404SOL    HW187059   9.042   8.900   5.650
27404SOL    HW287060   9.005   8.754   5.636
27405SOL     OW87061   7.903   9.199   5.877
27405SOL    HW187062   7.951   9.265   5.928
27405SOL    HW287063   7.971   9.145   5.837
27406SOL     OW87064   8.855   7.551   6.005
27406SOL    HW187065   8.775   7.508   5.976
27406SOL    HW287066   8.917   7.539   5.934
27407SOL     OW87067   7.707   9.226   6.780
27407SOL    HW187068   7.773   9.167   6.815
27407SOL    HW287069   7.729   9.237   6.688
27408SOL     OW87070   7.848   8.121   6.074
27408SOL    HW187071   7.852   8.026   6.077
27408SOL    HW287072   7.755   8.141   6.085
27409SOL     OW87073   8.953   7.699   7.322
27409SOL    HW187074   8.933   7.700   7.416
27409SOL    HW287075   8.939   7.608   7.296
27410SOL     OW87076   8.060   7.548   5.738
27410SOL    HW187077   8.114   7.497   5.799
27410SOL    HW287078   8.121   7.575   5.670
27411SOL     OW87079   8.170   7.701   7.338
27411SOL    HW187080   8.259   7.675   7.361
27411SOL    HW287081   8.175   7.794   7.319
27412SOL     OW87082   8.238   8.844   6.810
27412SOL    HW187083   8.245   8.802   6.724
27412SOL    HW287084   8.325   8.836   6.848
27413SOL     OW87085   8.708   8.044   7.029
27413SOL    HW187086   8.753   8.017   7.109
27413SOL    HW287087   8.748   8.128   7.007
27414SOL     OW87088   8.223   8.715   6.560
27414SOL    HW187089   8.297   8.746   6.509
27414SOL    HW287090   8.146   8.750   6.515
27415SOL     OW87091   8.234   7.857   6.459
27415SOL    HW187092   8.260   7.888   6.373
27415SOL    HW287093   8.312   7.813   6.493
27416SOL     OW87094   7.965   7.462   6.079
27416SOL    HW187095   7.980   7.517   6.156
27416SOL    HW287096   8.051   7.458   6.036
27417SOL     OW87097   8.877   8.628   5.606
27417SOL    HW187098   8.907   8.563   5.669
27417SOL    HW287099   8.796   8.663   5.643
27418SOL     OW87100   7.722   7.478   5.775
27418SOL    HW187101   7.773   7.557   5.793
27418SOL    HW287102   7.775   7.407   5.811
27419SOL     OW87103   8.365   7.710   6.056
27419SOL    HW187104   8.362   7.735   5.963
27419SOL    HW287105   8.399   7.621   6.055
27420SOL     OW87106   8.427   8.007   7.078
27420SOL    HW187107   8.369   8.019   7.002
27420SOL    HW287108   8.511   8.042   7.049
27421SOL     OW87109   8.591   9.028   6.298
27421SOL    HW187110   8.647   9.090   6.251
27421SOL    HW287111   8.607   9.047   6.390
27422SOL     OW87112   7.920   8.570   6.344
27422SOL    HW187113   7.845   8.571   6.284
27422SOL    HW287114   7.988   8.619   6.298
27423SOL     OW87115   8.747   9.251   6.215
27423SOL    HW187116   8.766   9.311   6.143
27423SOL    HW287117   8.813   9.271   6.281
27424SOL     OW87118   8.473   7.966   5.605
27424SOL    HW187119   8.437   8.049   5.574
27424SOL    HW287120   8.541   7.991   5.667
27425SOL     OW87121   7.551   8.019   6.965
27425SOL    HW187122   7.642   8.001   6.944
27425SOL    HW287123   7.554   8.096   7.023
27426SOL     OW87124   7.989   7.687   6.810
27426SOL    HW187125   8.036   7.638   6.878
27426SOL    HW287126   8.008   7.779   6.830
27427SOL     OW87127   8.302   7.930   6.205
27427SOL    HW187128   8.279   7.984   6.129
27427SOL    HW287129   8.331   7.847   6.167
27428SOL     OW87130   8.904   8.610   6.412
27428SOL    HW187131   8.846   8.594   6.338
27428SOL    HW287132   8.989   8.632   6.372
27429SOL     OW87133   8.918   8.059   6.541
27429SOL    HW187134   8.850   7.993   6.554
27429SOL    HW287135   8.974   8.052   6.618
27430SOL     OW87136   9.335   8.249   5.947
27430SOL    HW187137   9.368   8.203   6.024
27430SOL    HW287138   9.310   8.179   5.886
27431SOL     OW87139   7.863   8.865   5.689
27431SOL    HW187140   7.816   8.859   5.772
27431SOL    HW287141   7.946   8.908   5.711
27432SOL     OW87142   9.118   8.689   6.261
27432SOL    HW187143   9.212   8.679   6.278
27432SOL    HW287144   9.103   8.784   6.265
27433SOL     OW87145   8.835   8.049   5.631
27433SOL    HW187146   8.791   8.026   5.713
27433SOL    HW287147   8.928   8.047   5.652
27434SOL     OW87148   7.868   7.704   5.847
27434SOL    HW187149   7.944   7.651   5.820
27434SOL    HW287150   7.877   7.785   5.796
27435SOL     OW87151   9.179   8.698   7.150
27435SOL    HW187152   9.264   8.657   7.140
27435SOL    HW287153   9.198   8.792   7.157
27436SOL     OW87154   8.496   8.769   6.890
27436SOL    HW187155   8.441   8.694   6.911
27436SOL    HW287156   8.569   8.764   6.952
27437SOL     OW87157   9.067   9.084   7.253
27437SOL    HW187158   9.045   9.120   7.167
27437SOL    HW287159   9.147   9.034   7.238
27438SOL     OW87160   8.515   8.586   6.672
27438SOL    HW187161   8.459   8.576   6.749
27438SOL    HW287162   8.544   8.677   6.674
27439SOL     OW87163   9.057   8.528   6.643
27439SOL    HW187164   9.054   8.598   6.708
27439SOL    HW287165   8.993   8.555   6.577
27440SOL     OW87166   8.350   7.507   6.938
27440SOL    HW187167   8.368   7.502   6.844
27440SOL    HW287168   8.428   7.548   6.975
27441SOL     OW87169   8.362   8.447   7.231
27441SOL    HW187170   8.344   8.541   7.226
27441SOL    HW287171   8.344   8.414   7.143
27442SOL     OW87172   8.077   8.504   5.971
27442SOL    HW187173   8.077   8.567   6.043
27442SOL    HW287174   8.167   8.471   5.968
27443SOL     OW87175   7.790   8.274   6.937
27443SOL    HW187176   7.874   8.299   6.974
27443SOL    HW287177   7.804   8.185   6.904
27444SOL     OW87178   8.698   7.808   6.881
27444SOL    HW187179   8.713   7.890   6.928
27444SOL    HW287180   8.608   7.816   6.849
27445SOL     OW87181   7.590   9.031   6.951
27445SOL    HW187182   7.587   9.101   6.885
27445SOL    HW287183   7.681   9.003   6.952
27446SOL     OW87184   7.754   8.635   6.135
27446SOL    HW187185   7.819   8.705   6.130
27446SOL    HW287186   7.756   8.594   6.048
27447SOL     OW87187   7.974   7.945   6.443
27447SOL    HW187188   7.980   8.030   6.400
27447SOL    HW287189   8.065   7.919   6.458
27448SOL     OW87190   8.721   8.805   5.992
27448SOL    HW187191   8.783   8.875   6.014
27448SOL    HW287192   8.636   8.842   6.015
27449SOL     OW87193   8.694   8.917   6.733
27449SOL    HW187194   8.764   8.932   6.796
27449SOL    HW287195   8.619   8.890   6.787
27450SOL     OW87196   9.038   8.070   6.086
27450SOL    HW187197   8.954   8.099   6.122
27450SOL    HW287198   9.098   8.143   6.105
27451SOL     OW87199   7.862   9.023   6.876
27451SOL    HW187200   7.872   8.970   6.797
27451SOL    HW287201   7.952   9.043   6.903
27452SOL     OW87202   7.931   8.133   7.273
27452SOL    HW187203   7.959   8.186   7.198
27452SOL    HW287204   8.010   8.084   7.298
27453SOL     OW87205   9.056   8.258   7.294
27453SOL    HW187206   8.966   8.291   7.286
27453SOL    HW287207   9.102   8.294   7.219
27454SOL     OW87208   8.432   7.636   7.382
27454SOL    HW187209   8.478   7.699   7.326
27454SOL    HW287210   8.466   7.550   7.355
27455SOL     OW87211   7.902   7.501   7.203
27455SOL    HW187212   7.976   7.543   7.160
27455SOL    HW287213   7.879   7.559   7.276
27456SOL     OW87214   8.795   8.319   6.584
27456SOL    HW187215   8.820   8.363   6.503
27456SOL    HW287216   8.835   8.232   6.577
27457SOL     OW87217   8.645   7.983   5.824
27457SOL    HW187218   8.683   7.921   5.886
27457SOL    HW287219   8.607   8.052   5.880
27458SOL     OW87220   7.712   7.662   6.865
27458SOL    HW187221   7.698   7.686   6.957
27458SOL    HW287222   7.806   7.670   6.852
27459SOL     OW87223   7.462   8.787   6.884
27459SOL    HW187224   7.494   8.722   6.947
27459SOL    HW287225   7.509   8.867   6.906
27460SOL     OW87226   9.221   8.397   7.468
27460SOL    HW187227   9.165   8.349   7.406
27460SOL    HW287228   9.161   8.431   7.534
27461SOL     OW87229   7.665   7.476   6.248
27461SOL    HW187230   7.670   7.572   6.247
27461SOL    HW287231   7.711   7.451   6.328
27462SOL     OW87232   9.105   7.850   5.938
27462SOL    HW187233   9.128   7.782   6.002
27462SOL    HW287234   9.077   7.924   5.991
27463SOL     OW87235   8.355   9.025   7.329
27463SOL    HW187236   8.404   9.097   7.369
27463SOL    HW287237   8.363   9.042   7.235
27464SOL     OW87238   9.295   8.956   7.152
27464SOL    HW187239   9.332   8.978   7.067
27464SOL    HW287240   9.371   8.947   7.210
27465SOL     OW87241   7.794   8.340   7.421
27465SOL    HW187242   7.844   8.417   7.394
27465SOL    HW287243   7.841   8.266   7.381
27466SOL     OW87244   8.928   7.741   5.757
27466SOL    HW187245   8.851   7.759   5.810
27466SOL    HW287246   9.001   7.779   5.806
27467SOL     OW87247   8.699   8.284   5.588
27467SOL    HW187248   8.747   8.201   5.594
27467SOL    HW287249   8.733   8.326   5.509
27468SOL     OW87250   8.431   8.805   6.403
27468SOL    HW187251   8.459   8.719   6.370
27468SOL    HW287252   8.493   8.866   6.363
27469SOL     OW87253   7.739   8.261   6.487
27469SOL    HW187254   7.817   8.253   6.432
27469SOL    HW287255   7.741   8.183   6.543
27470SOL     OW87256   7.751   7.989   6.590
27470SOL    HW187257   7.718   7.900   6.597
27470SOL    HW287258   7.836   7.980   6.546
27471SOL     OW87259   8.558   7.817   7.224
27471SOL    HW187260   8.507   7.884   7.178
27471SOL    HW287261   8.643   7.858   7.239
27472SOL     OW87262   8.584   7.609   7.046
27472SOL    HW187263   8.572   7.679   7.110
27472SOL    HW287264   8.639   7.648   6.978
27473SOL     OW87265   7.420   8.763   5.751
27473SOL    HW187266   7.487   8.755   5.684
27473SOL    HW287267   7.440   8.694   5.814
27474SOL     OW87268   7.517   9.189   6.515
27474SOL    HW187269   7.504   9.106   6.468
27474SOL    HW287270   7.610   9.207   6.506
27475SOL     OW87271   7.495   8.037   6.696
27475SOL    HW187272   7.577   8.032   6.646
27475SOL    HW287273   7.524   8.036   6.787
27476SOL     OW87274   7.692   7.994   7.253
27476SOL    HW187275   7.784   8.020   7.256
27476SOL    HW287276   7.647   8.067   7.211
27477SOL     OW87277   8.811   8.372   7.242
27477SOL    HW187278   8.842   8.463   7.234
27477SOL    HW287279   8.807   8.340   7.152
27478SOL     OW87280   8.266   8.023   5.939
27478SOL    HW187281   8.277   7.944   5.887
27478SOL    HW287282   8.186   8.063   5.904
27479SOL     OW87283   9.088   8.036   6.754
27479SOL    HW187284   9.085   7.999   6.843
27479SOL    HW287285   9.178   8.021   6.725
27480SOL     OW87286   7.670   9.007   7.273
27480SOL    HW187287   7.698   9.074   7.335
27480SOL    HW287288   7.690   8.924   7.317
27481SOL     OW87289   7.877   7.932   5.695
27481SOL    HW187290   7.939   7.993   5.735
27481SOL    HW287291   7.792   7.977   5.699
27482SOL     OW87292   7.506   8.575   7.063
27482SOL    HW187293   7.556   8.544   7.139
27482SOL    HW287294   7.551   8.538   6.988
27483SOL     OW87295   8.729   8.470   6.805
27483SOL    HW187296   8.770   8.419   6.735
27483SOL    HW287297   8.653   8.511   6.764
27484SOL     OW87298   8.744   8.295   5.866
27484SOL    HW187299   8.663   8.271   5.911
27484SOL    HW287300   8.720   8.299   5.773
27485SOL     OW87301   9.246   9.183   6.752
27485SOL    HW187302   9.312   9.206   6.687
27485SOL    HW287303   9.206   9.103   6.719
27486SOL     OW87304   8.661   9.133   6.549
27486SOL    HW187305   8.747   9.174   6.543
27486SOL    HW287306   8.671   9.065   6.616
27487SOL     OW87307   7.496   8.732   6.607
27487SOL    HW187308   7.497   8.743   6.702
27487SOL    HW287309   7.566   8.669   6.589
27488SOL     OW87310   8.092   9.100   7.345
27488SOL    HW187311   8.078   9.194   7.343
27488SOL    HW287312   8.186   9.089   7.335
27489SOL     OW87313   9.199   7.627   6.084
27489SOL    HW187314   9.251   7.608   6.006
27489SOL    HW287315   9.174   7.541   6.118
27490SOL     OW87316   8.871   9.027   6.073
27490SOL    HW187317   8.928   9.046   5.999
27490SOL    HW287318   8.835   9.112   6.098
27491SOL     OW87319   7.628   9.243   7.425
27491SOL    HW187320   7.573   9.178   7.469
27491SOL    HW287321   7.664   9.296   7.496
27492SOL     OW87322   8.693   8.386   6.271
27492SOL    HW187323   8.768   8.327   6.282
27492SOL    HW287324   8.724   8.454   6.210
27493SOL     OW87325   8.265   8.674   7.111
27493SOL    HW187326   8.200   8.740   7.088
27493SOL    HW287327   8.272   8.619   7.033
27494SOL     OW87328   8.093   9.045   5.740
27494SOL    HW187329   8.100   9.099   5.661
27494SOL    HW287330   8.143   8.966   5.718
27495SOL     OW87331   9.063   9.173   6.975
27495SOL    HW187332   9.129   9.172   6.905
27495SOL    HW287333   9.047   9.266   6.990
27496SOL     OW87334   9.298   7.602   6.546
27496SOL    HW187335   9.329   7.513   6.531
27496SOL    HW287336   9.211   7.604   6.507
27497SOL     OW87337   7.704   7.759   6.327
27497SOL    HW187338   7.773   7.825   6.329
27497SOL    HW287339   7.689   7.737   6.419
27498SOL     OW87340   8.652   9.020   5.626
27498SOL    HW187341   8.746   9.008   5.635
27498SOL    HW287342   8.642   9.096   5.568
27499SOL     OW87343   8.327   8.385   5.919
27499SOL    HW187344   8.365   8.403   5.833
27499SOL    HW287345   8.389   8.325   5.961
27500SOL     OW87346   8.920   9.069   5.585
27500SOL    HW187347   8.863   9.138   5.553
27500SOL    HW287348   8.981   9.053   5.513
27501SOL     OW87349   7.858   8.720   7.057
27501SOL    HW187350   7.912   8.792   7.089
27501SOL    HW287351   7.891   8.703   6.968
27502SOL     OW87352   9.045   8.740   6.828
27502SOL    HW187353   9.131   8.742   6.871
27502SOL    HW287354   8.991   8.799   6.880
27503SOL     OW87355   8.485   8.518   6.403
27503SOL    HW187356   8.523   8.538   6.489
27503SOL    HW287357   8.555   8.473   6.356
27504SOL     OW87358   8.464   7.707   6.538
27504SOL    HW187359   8.492   7.673   6.453
27504SOL    HW287360   8.457   7.630   6.594
27505SOL     OW87361   9.198   7.837   6.994
27505SOL    HW187362   9.270   7.901   6.989
27505SOL    HW287363   9.216   7.775   6.924
27506SOL     OW87364   7.755   8.863   5.936
27506SOL    HW187365   7.688   8.873   6.005
27506SOL    HW287366   7.837   8.853   5.985
27507SOL     OW87367   7.570   8.442   7.296
27507SOL    HW187368   7.497   8.441   7.359
27507SOL    HW287369   7.647   8.424   7.349
27508SOL     OW87370   8.125   7.617   7.071
27508SOL    HW187371   8.203   7.580   7.028
27508SOL    HW287372   8.155   7.642   7.158
27509SOL     OW87373   7.528   7.769   5.650
27509SOL    HW187374   7.472   7.779   5.573
27509SOL    HW287375   7.559   7.857   5.670
27510SOL     OW87376   8.832   8.287   6.981
27510SOL    HW187377   8.783   8.351   6.928
27510SOL    HW287378   8.921   8.290   6.945
27511SOL     OW87379   7.479   7.574   5.853
27511SOL    HW187380   7.468   7.646   5.791
27511SOL    HW287381   7.567   7.540   5.835
27512SOL     OW87382   8.661   8.760   5.720
27512SOL    HW187383   8.641   8.851   5.701
27512SOL    HW287384   8.682   8.758   5.813
27513SOL     OW87385   8.035   8.267   7.059
27513SOL    HW187386   8.109   8.328   7.058
27513SOL    HW287387   8.049   8.210   6.984
27514SOL     OW87388   8.914   9.245   6.513
27514SOL    HW187389   8.949   9.331   6.492
27514SOL    HW287390   8.991   9.195   6.542
27515SOL     OW87391   8.220   7.961   7.260
27515SOL    HW187392   8.227   8.045   7.305
27515SOL    HW287393   8.285   7.966   7.189
27516SOL     OW87394   8.920   8.626   7.210
27516SOL    HW187395   8.917   8.645   7.303
27516SOL    HW287396   9.009   8.650   7.183
27517SOL     OW87397   7.881   9.219   7.120
27517SOL    HW187398   7.786   9.230   7.119
27517SOL    HW287399   7.895   9.125   7.122
27518SOL     OW87400   9.064   8.316   6.829
27518SOL    HW187401   9.089   8.235   6.785
27518SOL    HW287402   9.070   8.384   6.761
27519SOL     OW87403   8.764   7.811   6.000
27519SOL    HW187404   8.793   7.721   6.015
27519SOL    HW287405   8.764   7.851   6.087
27520SOL     OW87406   7.961   8.200   6.327
27520SOL    HW187407   8.033   8.263   6.329
27520SOL    HW287408   7.941   8.190   6.234
27521SOL     OW87409   9.197   7.821   7.279
27521SOL    HW187410   9.211   7.830   7.184
27521SOL    HW287411   9.115   7.772   7.286
27522SOL     OW87412   9.141   8.400   7.083
27522SOL    HW187413   9.164   8.493   7.083
27522SOL    HW287414   9.133   8.377   6.990
27523SOL     OW87415   8.232   8.827   5.637
27523SOL    HW187416   8.271   8.808   5.722
27523SOL    HW287417   8.303   8.866   5.586
27524SOL     OW87418   8.460   8.391   5.673
27524SOL    HW187419   8.451   8.470   5.620
27524SOL    HW287420   8.546   8.356   5.650
27525SOL     OW87421   9.257   9.027   6.429
27525SOL    HW187422   9.198   9.006   6.357
27525SOL    HW287423   9.217   8.985   6.505
27526SOL     OW87424   7.702   8.790   7.443
27526SOL    HW187425   7.628   8.777   7.501
27526SOL    HW287426   7.776   8.808   7.501
27527SOL     OW87427   7.531   8.618   6.308
27527SOL    HW187428   7.587   8.596   6.382
27527SOL    HW287429   7.593   8.634   6.236
27528SOL     OW87430   8.034   8.914   7.142
27528SOL    HW187431   8.056   8.958   7.225
27528SOL    HW287432   8.080   8.966   7.075
27529SOL     OW87433   9.159   7.608   6.790
27529SOL    HW187434   9.160   7.513   6.775
27529SOL    HW287435   9.215   7.644   6.722
27530SOL     OW87436   7.821   7.847   6.078
27530SOL    HW187437   7.842   7.793   6.002
27530SOL    HW287438   7.779   7.787   6.139
27531SOL     OW87439   9.113   8.953   6.654
27531SOL    HW187440   9.031   8.933   6.609
27531SOL    HW287441   9.124   8.881   6.716
27532SOL     OW87442   7.808   8.000   6.883
27532SOL    HW187443   7.884   7.969   6.932
27532SOL    HW287444   7.840   8.009   6.793
27533SOL     OW87445   8.900   7.720   6.711
27533SOL    HW187446   8.977   7.687   6.758
27533SOL    HW287447   8.838   7.743   6.780
27534SOL     OW87448   8.443   7.458   6.665
27534SOL    HW187449   8.408   7.400   6.598
27534SOL    HW287450   8.529   7.422   6.686
27535SOL     OW87451   8.302   8.788   5.896
27535SOL    HW187452   8.246   8.742   5.959
27535SOL    HW287453   8.372   8.825   5.950
27536SOL     OW87454   8.132   9.066   6.935
27536SOL    HW187455   8.200   9.130   6.957
27536SOL    HW287456   8.178   8.998   6.885
27537SOL     OW87457   8.761   7.918   6.259
27537SOL    HW187458   8.706   7.997   6.250
27537SOL    HW287459   8.747   7.889   6.349
27538SOL     OW87460   9.025   7.630   6.479
27538SOL    HW187461   8.979   7.664   6.556
27538SOL    HW287462   9.031   7.704   6.419
27539SOL     OW87463   7.491   8.542   5.907
27539SOL    HW187464   7.585   8.555   5.904
27539SOL    HW287465   7.480   8.447   5.910
27540SOL     OW87466   8.316   9.115   5.931
27540SOL    HW187467   8.241   9.097   5.875
27540SOL    HW287468   8.295   9.199   5.973
27541SOL     OW87469   7.646   7.996   7.526
27541SOL    HW187470   7.597   8.073   7.555
27541SOL    HW287471   7.659   8.010   7.432
27542SOL     OW87472   7.685   7.717   8.435
27542SOL    HW187473   7.708   7.705   8.528
27542SOL    HW287474   7.595   7.685   8.428
27543SOL     OW87475   7.429   7.754   8.136
27543SOL    HW187476   7.362   7.819   8.160
27543SOL    HW287477   7.397   7.718   8.053
27544SOL     OW87478   7.994   8.722   8.644
27544SOL    HW187479   7.919   8.749   8.591
27544SOL    HW287480   8.015   8.799   8.696
27545SOL     OW87481   9.046   8.983   8.154
27545SOL    HW187482   8.998   8.963   8.234
27545SOL    HW287483   8.979   8.986   8.086
27546SOL     OW87484   8.552   8.167   8.153
27546SOL    HW187485   8.594   8.249   8.127
27546SOL    HW287486   8.546   8.173   8.248
27547SOL     OW87487   9.190   8.023   7.698
27547SOL    HW187488   9.167   8.046   7.608
27547SOL    HW287489   9.213   7.930   7.694
27548SOL     OW87490   8.199   8.585   8.543
27548SOL    HW187491   8.127   8.629   8.588
27548SOL    HW287492   8.236   8.652   8.485
27549SOL     OW87493   8.146   8.297   9.201
27549SOL    HW187494   8.154   8.384   9.240
27549SOL    HW287495   8.219   8.292   9.140
27550SOL     OW87496   8.167   8.474   8.152
27550SOL    HW187497   8.245   8.530   8.154
27550SOL    HW287498   8.093   8.534   8.157
27551SOL     OW87499   8.170   8.593   9.279
27551SOL    HW187500   8.220   8.664   9.320
27551SOL    HW287501   8.098   8.638   9.234
27552SOL     OW87502   7.792   8.848   8.506
27552SOL    HW187503   7.710   8.822   8.464
27552SOL    HW287504   7.833   8.908   8.444
27553SOL     OW87505   8.889   8.915   8.836
27553SOL    HW187506   8.943   8.994   8.837
27553SOL    HW287507   8.812   8.938   8.888
27554SOL     OW87508   7.913   7.785   8.929
27554SOL    HW187509   8.007   7.766   8.927
27554SOL    HW287510   7.892   7.790   9.022
27555SOL     OW87511   9.053   7.895   8.190
27555SOL    HW187512   9.045   7.943   8.108
27555SOL    HW287513   9.011   7.952   8.255
27556SOL     OW87514   7.664   9.152   7.914
27556SOL    HW187515   7.684   9.221   7.977
27556SOL    HW287516   7.743   9.142   7.862
27557SOL     OW87517   8.567   8.767   9.143
27557SOL    HW187518   8.605   8.774   9.230
27557SOL    HW287519   8.522   8.682   9.143
27558SOL     OW87520   7.579   8.917   8.031
27558SOL    HW187521   7.610   8.998   7.991
27558SOL    HW287522   7.533   8.944   8.110
27559SOL     OW87523   7.695   8.558   8.319
27559SOL    HW187524   7.697   8.474   8.365
27559SOL    HW287525   7.645   8.616   8.377
27560SOL     OW87526   8.037   9.203   8.875
27560SOL    HW187527   7.955   9.196   8.923
27560SOL    HW287528   8.063   9.294   8.885
27561SOL     OW87529   8.016   8.421   7.668
27561SOL    HW187530   8.039   8.478   7.594
27561SOL    HW287531   8.072   8.451   7.739
27562SOL     OW87532   9.019   7.603   8.893
27562SOL    HW187533   9.064   7.682   8.865
27562SOL    HW287534   9.000   7.618   8.986
27563SOL     OW87535   7.576   8.130   8.012
27563SOL    HW187536   7.573   8.037   8.032
27563SOL    HW287537   7.565   8.173   8.097
27564SOL     OW87538   9.297   9.174   7.770
27564SOL    HW187539   9.377   9.159   7.821
27564SOL    HW287540   9.305   9.264   7.740
27565SOL     OW87541   7.484   9.041   7.540
27565SOL    HW187542   7.481   8.948   7.562
27565SOL    HW287543   7.456   9.085   7.621
27566SOL     OW87544   9.093   8.296   8.060
27566SOL    HW187545   9.151   8.324   8.131
27566SOL    HW287546   9.100   8.365   7.994
27567SOL     OW87547   9.118   8.536   7.901
27567SOL    HW187548   9.203   8.532   7.857
27567SOL    HW287549   9.129   8.602   7.970
27568SOL     OW87550   7.598   8.212   9.053
27568SOL    HW187551   7.692   8.223   9.044
27568SOL    HW287552   7.567   8.294   9.091
27569SOL     OW87553   8.070   8.831   8.191
27569SOL    HW187554   8.014   8.755   8.180
27569SOL    HW287555   8.064   8.877   8.107
27570SOL     OW87556   8.282   7.441   7.961
27570SOL    HW187557   8.322   7.516   7.917
27570SOL    HW287558   8.189   7.462   7.962
27571SOL     OW87559   7.585   8.394   8.769
27571SOL    HW187560   7.661   8.345   8.738
27571SOL    HW287561   7.512   8.360   8.717
27572SOL     OW87562   9.012   8.463   7.651
27572SOL    HW187563   8.946   8.400   7.679
27572SOL    HW287564   9.053   8.492   7.733
27573SOL     OW87565   8.664   9.259   9.021
27573SOL    HW187566   8.646   9.340   8.975
27573SOL    HW287567   8.758   9.245   9.009
27574SOL     OW87568   7.820   7.732   9.205
27574SOL    HW187569   7.886   7.778   9.258
27574SOL    HW287570   7.740   7.735   9.258
27575SOL     OW87571   8.910   8.878   8.380
27575SOL    HW187572   8.841   8.887   8.445
27575SOL    HW287573   8.900   8.790   8.345
27576SOL     OW87574   9.087   9.251   8.006
27576SOL    HW187575   9.071   9.202   7.926
27576SOL    HW287576   9.086   9.186   8.076
27577SOL     OW87577   8.024   8.143   7.726
27577SOL    HW187578   8.029   8.231   7.690
27577SOL    HW287579   7.963   8.150   7.800
27578SOL     OW87580   8.733   7.829   8.384
27578SOL    HW187581   8.650   7.783   8.390
27578SOL    HW287582   8.790   7.783   8.446
27579SOL     OW87583   9.029   9.109   7.773
27579SOL    HW187584   9.124   9.119   7.763
27579SOL    HW287585   8.995   9.105   7.683
27580SOL     OW87586   8.166   8.074   8.914
27580SOL    HW187587   8.215   8.048   8.992
27580SOL    HW287588   8.179   8.002   8.852
27581SOL     OW87589   8.896   7.931   9.136
27581SOL    HW187590   8.830   7.930   9.205
27581SOL    HW287591   8.977   7.960   9.179
27582SOL     OW87592   8.356   8.332   9.018
27582SOL    HW187593   8.397   8.249   8.992
27582SOL    HW287594   8.338   8.376   8.935
27583SOL     OW87595   8.450   7.894   8.719
27583SOL    HW187596   8.456   7.958   8.789
27583SOL    HW287597   8.356   7.887   8.701
27584SOL     OW87598   8.498   8.122   7.882
27584SOL    HW187599   8.504   8.139   7.976
27584SOL    HW287600   8.409   8.089   7.869
27585SOL     OW87601   7.543   8.235   8.261
27585SOL    HW187602   7.617   8.252   8.318
27585SOL    HW287603   7.482   8.307   8.278
27586SOL     OW87604   7.550   9.274   8.993
27586SOL    HW187605   7.551   9.266   9.088
27586SOL    HW287606   7.559   9.367   8.976
27587SOL     OW87607   8.516   7.811   7.583
27587SOL    HW187608   8.490   7.895   7.544
27587SOL    HW287609   8.479   7.745   7.525
27588SOL     OW87610   9.147   8.001   9.244
27588SOL    HW187611   9.139   8.089   9.207
27588SOL    HW287612   9.201   7.953   9.181
27589SOL     OW87613   8.830   8.586   7.964
27589SOL    HW187614   8.917   8.585   7.926
27589SOL    HW287615   8.786   8.661   7.924
27590SOL     OW87616   8.006   7.584   8.408
27590SOL    HW187617   8.007   7.616   8.498
27590SOL    HW287618   8.034   7.659   8.356
27591SOL     OW87619   8.430   8.911   7.904
27591SOL    HW187620   8.406   8.979   7.841
27591SOL    HW287621   8.401   8.946   7.988
27592SOL     OW87622   7.796   9.271   8.362
27592SOL    HW187623   7.858   9.199   8.357
27592SOL    HW287624   7.850   9.349   8.376
27593SOL     OW87625   9.246   8.395   8.269
27593SOL    HW187626   9.293   8.467   8.227
27593SOL    HW287627   9.197   8.436   8.340
27594SOL     OW87628   8.646   8.964   8.956
27594SOL    HW187629   8.623   8.905   9.028
27594SOL    HW287630   8.622   9.051   8.987
27595SOL     OW87631   7.740   8.424   7.686
27595SOL    HW187632   7.836   8.430   7.695
27595SOL    HW287633   7.727   8.386   7.599
27596SOL     OW87634   8.867   8.253   8.217
27596SOL    HW187635   8.888   8.178   8.273
27596SOL    HW287636   8.946   8.265   8.163
27597SOL     OW87637   7.945   8.726   9.179
27597SOL    HW187638   7.908   8.732   9.091
27597SOL    HW287639   7.869   8.721   9.237
27598SOL     OW87640   8.543   9.259   7.669
27598SOL    HW187641   8.480   9.198   7.707
27598SOL    HW287642   8.500   9.292   7.590
27599SOL     OW87643   7.617   7.683   8.995
27599SOL    HW187644   7.546   7.732   9.037
27599SOL    HW287645   7.694   7.703   9.048
27600SOL     OW87646   9.072   8.840   7.560
27600SOL    HW187647   9.036   8.927   7.543
27600SOL    HW287648   9.009   8.780   7.520
27601SOL     OW87649   7.906   9.165   7.779
27601SOL    HW187650   7.950   9.237   7.825
27601SOL    HW287651   7.967   9.139   7.711
27602SOL     OW87652   8.859   7.515   7.930
27602SOL    HW187653   8.865   7.492   7.837
27602SOL    HW287654   8.941   7.482   7.968
27603SOL     OW87655   7.710   9.238   8.667
27603SOL    HW187656   7.751   9.157   8.699
27603SOL    HW287657   7.717   9.233   8.572
27604SOL     OW87658   8.374   9.151   8.325
27604SOL    HW187659   8.459   9.107   8.320
27604SOL    HW287660   8.324   9.116   8.252
27605SOL     OW87661   7.851   8.127   7.943
27605SOL    HW187662   7.851   8.032   7.946
27605SOL    HW287663   7.759   8.152   7.952
27606SOL     OW87664   8.998   7.677   9.163
27606SOL    HW187665   9.003   7.665   9.257
27606SOL    HW287666   8.941   7.753   9.151
27607SOL     OW87667   8.028   7.547   7.526
27607SOL    HW187668   8.070   7.607   7.464
27607SOL    HW287669   8.058   7.460   7.498
27608SOL     OW87670   8.238   7.687   9.153
27608SOL    HW187671   8.321   7.644   9.174
27608SOL    HW287672   8.247   7.775   9.188
27609SOL     OW87673   8.293   8.957   8.613
27609SOL    HW187674   8.286   8.913   8.529
27609SOL    HW287675   8.380   8.933   8.646
27610SOL     OW87676   8.751   8.026   8.921
27610SOL    HW187677   8.800   7.994   8.997
27610SOL    HW287678   8.797   8.105   8.894
27611SOL     OW87679   8.268   8.797   8.386
27611SOL    HW187680   8.355   8.802   8.346
27611SOL    HW287681   8.208   8.820   8.315
27612SOL     OW87682   8.385   7.935   8.357
27612SOL    HW187683   8.366   7.928   8.264
27612SOL    HW287684   8.422   7.850   8.380
27613SOL     OW87685   8.016   7.497   7.939
27613SOL    HW187686   7.939   7.486   7.995
27613SOL    HW287687   7.995   7.573   7.884
27614SOL     OW87688   8.889   8.647   7.480
27614SOL    HW187689   8.932   8.582   7.536
27614SOL    HW287690   8.806   8.665   7.524
27615SOL     OW87691   7.745   7.468   7.597
27615SOL    HW187692   7.804   7.523   7.546
27615SOL    HW287693   7.803   7.413   7.650
27616SOL     OW87694   8.478   8.092   8.914
27616SOL    HW187695   8.432   8.054   8.989
27616SOL    HW287696   8.571   8.072   8.931
27617SOL     OW87697   8.624   9.047   8.261
27617SOL    HW187698   8.655   9.095   8.184
27617SOL    HW287699   8.669   9.088   8.335
27618SOL     OW87700   7.921   8.600   8.161
27618SOL    HW187701   7.849   8.590   8.224
27618SOL    HW287702   7.879   8.588   8.076
27619SOL     OW87703   8.693   9.237   8.067
27619SOL    HW187704   8.744   9.298   8.013
27619SOL    HW287705   8.621   9.289   8.102
27620SOL     OW87706   8.474   8.063   7.488
27620SOL    HW187707   8.401   8.099   7.437
27620SOL    HW287708   8.543   8.129   7.482
27621SOL     OW87709   7.525   8.031   8.862
27621SOL    HW187710   7.617   8.013   8.843
27621SOL    HW287711   7.527   8.102   8.927
27622SOL     OW87712   8.007   7.686   8.664
27622SOL    HW187713   8.064   7.661   8.736
27622SOL    HW287714   7.920   7.693   8.704
27623SOL     OW87715   8.345   7.905   8.084
27623SOL    HW187716   8.307   7.934   8.001
27623SOL    HW287717   8.438   7.895   8.066
27624SOL     OW87718   8.464   7.479   8.181
27624SOL    HW187719   8.403   7.475   8.107
27624SOL    HW287720   8.433   7.411   8.241
27625SOL     OW87721   8.930   8.628   8.248
27625SOL    HW187722   8.871   8.603   8.176
27625SOL    HW287723   9.010   8.658   8.204
27626SOL     OW87724   8.917   8.042   8.387
27626SOL    HW187725   8.846   7.979   8.399
27626SOL    HW287726   8.966   8.040   8.469
27627SOL     OW87727   9.322   8.241   7.811
27627SOL    HW187728   9.368   8.192   7.880
27627SOL    HW287729   9.279   8.174   7.759
27628SOL     OW87730   7.918   8.813   7.613
27628SOL    HW187731   7.883   8.789   7.698
27628SOL    HW287732   7.979   8.743   7.591
27629SOL     OW87733   9.151   8.715   8.110
27629SOL    HW187734   9.244   8.695   8.121
27629SOL    HW287735   9.146   8.811   8.112
27630SOL     OW87736   8.855   8.030   7.515
27630SOL    HW187737   8.851   8.055   7.607
27630SOL    HW287738   8.948   8.031   7.494
27631SOL     OW87739   7.952   7.689   7.753
27631SOL    HW187740   7.983   7.633   7.682
27631SOL    HW287741   7.934   7.774   7.711
27632SOL     OW87742   9.158   8.719   8.968
27632SOL    HW187743   9.241   8.671   8.959
27632SOL    HW287744   9.183   8.801   9.011
27633SOL     OW87745   8.505   8.832   8.754
27633SOL    HW187746   8.428   8.797   8.799
27633SOL    HW287747   8.552   8.881   8.822
27634SOL     OW87748   9.036   9.077   9.107
27634SOL    HW187749   9.033   9.113   9.018
27634SOL    HW287750   9.120   9.032   9.112
27635SOL     OW87751   8.562   8.640   8.556
27635SOL    HW187752   8.531   8.701   8.622
27635SOL    HW287753   8.559   8.689   8.474
27636SOL     OW87754   9.066   8.510   8.465
27636SOL    HW187755   9.073   8.583   8.526
27636SOL    HW287756   9.009   8.541   8.395
27637SOL     OW87757   8.406   7.511   8.810
27637SOL    HW187758   8.437   7.502   8.720
27637SOL    HW287759   8.479   7.551   8.857
27638SOL     OW87760   8.432   8.526   9.198
27638SOL    HW187761   8.345   8.553   9.225
27638SOL    HW287762   8.416   8.455   9.134
27639SOL     OW87763   8.189   8.502   7.864
27639SOL    HW187764   8.194   8.484   7.957
27639SOL    HW287765   8.263   8.455   7.826
27640SOL     OW87766   7.816   8.247   8.694
27640SOL    HW187767   7.888   8.279   8.749
27640SOL    HW287768   7.800   8.158   8.725
27641SOL     OW87769   8.710   7.811   8.753
27641SOL    HW187770   8.734   7.886   8.808
27641SOL    HW287771   8.620   7.831   8.725
27642SOL     OW87772   7.533   9.034   8.834
27642SOL    HW187773   7.526   9.125   8.863
27642SOL    HW287774   7.625   9.025   8.807
27643SOL     OW87775   7.782   8.566   7.929
27643SOL    HW187776   7.753   8.649   7.890
27643SOL    HW287777   7.763   8.500   7.862
27644SOL     OW87778   8.688   8.806   7.864
27644SOL    HW187779   8.744   8.879   7.891
27644SOL    HW287780   8.599   8.838   7.880
27645SOL     OW87781   8.738   8.912   8.602
27645SOL    HW187782   8.800   8.913   8.676
27645SOL    HW287783   8.655   8.884   8.641
27646SOL     OW87784   9.074   8.039   7.952
27646SOL    HW187785   9.077   8.128   7.988
27646SOL    HW287786   9.115   8.047   7.866
27647SOL     OW87787   7.788   8.971   8.749
27647SOL    HW187788   7.782   8.923   8.666
27647SOL    HW287789   7.882   8.977   8.766
27648SOL     OW87790   7.875   8.202   9.057
27648SOL    HW187791   7.930   8.245   8.991
27648SOL    HW287792   7.933   8.138   9.099
27649SOL     OW87793   9.090   8.247   9.142
27649SOL    HW187794   8.997   8.268   9.135
27649SOL    HW287795   9.131   8.295   9.070
27650SOL     OW87796   8.490   7.604   9.241
27650SOL    HW187797   8.536   7.688   9.245
27650SOL    HW287798   8.559   7.538   9.243
27651SOL     OW87799   7.854   7.458   9.134
27651SOL    HW187800   7.780   7.421   9.183
27651SOL    HW287801   7.863   7.547   9.167
27652SOL     OW87802   8.027   8.376   8.475
27652SOL    HW187803   8.072   8.458   8.494
27652SOL    HW287804   7.998   8.345   8.561
27653SOL     OW87805   8.786   8.317   8.558
27653SOL    HW187806   8.710   8.325   8.500
27653SOL    HW287807   8.853   8.274   8.505
27654SOL     OW87808   8.737   8.054   7.771
27654SOL    HW187809   8.779   8.140   7.775
27654SOL    HW287810   8.651   8.068   7.811
27655SOL     OW87811   7.707   7.665   8.712
27655SOL    HW187812   7.702   7.681   8.806
27655SOL    HW287813   7.719   7.571   8.703
27656SOL     OW87814   7.515   8.771   8.734
27656SOL    HW187815   7.532   8.717   8.811
27656SOL    HW287816   7.511   8.861   8.767
27657SOL     OW87817   8.218   8.121   8.471
27657SOL    HW187818   8.272   8.050   8.436
27657SOL    HW287819   8.266   8.153   8.547
27658SOL     OW87820   9.184   8.436   9.329
27658SOL    HW187821   9.144   8.362   9.283
27658SOL    HW287822   9.123   8.456   9.399
27659SOL     OW87823   7.782   7.460   8.089
27659SOL    HW187824   7.750   7.549   8.102
27659SOL    HW287825   7.790   7.424   8.177
27660SOL     OW87826   9.037   7.786   7.819
27660SOL    HW187827   9.090   7.725   7.871
27660SOL    HW287828   9.036   7.867   7.870
27661SOL     OW87829   8.520   8.170   8.440
27661SOL    HW187830   8.503   8.179   8.533
27661SOL    HW287831   8.494   8.081   8.418
27662SOL     OW87832   8.440   9.020   9.180
27662SOL    HW187833   8.408   9.064   9.101
27662SOL    HW287834   8.439   8.927   9.158
27663SOL     OW87835   9.278   8.948   9.062
27663SOL    HW187836   9.309   8.960   8.972
27663SOL    HW287837   9.356   8.964   9.116
27664SOL     OW87838   7.804   8.380   9.268
27664SOL    HW187839   7.876   8.401   9.328
27664SOL    HW287840   7.844   8.323   9.202
27665SOL     OW87841   8.891   7.709   7.602
27665SOL    HW187842   8.876   7.616   7.618
27665SOL    HW287843   8.958   7.734   7.665
27666SOL     OW87844   8.696   8.254   7.459
27666SOL    HW187845   8.752   8.177   7.464
27666SOL    HW287846   8.728   8.303   7.383
27667SOL     OW87847   8.534   8.789   8.316
27667SOL    HW187848   8.533   8.736   8.236
27667SOL    HW287849   8.575   8.871   8.290
27668SOL     OW87850   7.759   8.291   8.426
27668SOL    HW187851   7.847   8.322   8.404
27668SOL    HW287852   7.762   8.275   8.521
27669SOL     OW87853   7.739   7.983   8.498
27669SOL    HW187854   7.737   7.904   8.445
27669SOL    HW287855   7.755   8.054   8.435
27670SOL     OW87856   8.623   7.625   8.947
27670SOL    HW187857   8.608   7.684   9.022
27670SOL    HW287858   8.668   7.680   8.883
27671SOL     OW87859   7.471   8.761   7.611
27671SOL    HW187860   7.385   8.780   7.574
27671SOL    HW287861   7.461   8.676   7.653
27672SOL     OW87862   7.528   9.215   8.391
27672SOL    HW187863   7.509   9.144   8.329
27672SOL    HW287864   7.620   9.236   8.374
27673SOL     OW87865   7.941   9.018   8.351
27673SOL    HW187866   8.006   9.087   8.366
27673SOL    HW287867   7.985   8.956   8.294
27674SOL     OW87868   8.379   8.222   8.681
27674SOL    HW187869   8.412   8.174   8.757
27674SOL    HW287870   8.352   8.307   8.717
27675SOL     OW87871   7.479   7.948   8.604
27675SOL    HW187872   7.560   7.963   8.556
27675SOL    HW287873   7.493   7.989   8.689
27676SOL     OW87874   7.662   8.011   9.232
27676SOL    HW187875   7.757   8.021   9.223
27676SOL    HW287876   7.626   8.073   9.170
27677SOL     OW87877   8.841   8.347   9.081
27677SOL    HW187878   8.859   8.441   9.078
27677SOL    HW287879   8.836   8.321   8.989
27678SOL     OW87880   8.254   8.006   7.825
27678SOL    HW187881   8.279   7.964   7.743
27678SOL    HW287882   8.176   8.058   7.803
27679SOL     OW87883   9.076   8.046   8.613
27679SOL    HW187884   9.075   7.990   8.691
27679SOL    HW287885   9.166   8.038   8.580
27680SOL     OW87886   7.664   8.973   9.173
27680SOL    HW187887   7.645   9.051   9.226
27680SOL    HW287888   7.691   8.907   9.237
27681SOL     OW87889   8.175   7.912   8.678
27681SOL    HW187890   8.116   7.839   8.663
27681SOL    HW287891   8.151   7.977   8.612
27682SOL     OW87892   8.350   9.133   8.944
27682SOL    HW187893   8.270   9.111   8.896
27682SOL    HW287894   8.376   9.218   8.910
27683SOL     OW87895   7.897   7.916   7.612
27683SOL    HW187896   7.948   7.993   7.638
27683SOL    HW287897   7.811   7.950   7.591
27684SOL     OW87898   7.563   8.593   8.951
27684SOL    HW187899   7.566   8.550   9.036
27684SOL    HW287900   7.580   8.523   8.888
27685SOL     OW87901   8.805   8.575   8.700
27685SOL    HW187902   8.821   8.489   8.660
27685SOL    HW287903   8.724   8.606   8.658
27686SOL     OW87904   8.784   8.321   7.720
27686SOL    HW187905   8.736   8.389   7.766
27686SOL    HW287906   8.743   8.317   7.634
27687SOL     OW87907   9.246   9.185   8.654
27687SOL    HW187908   9.340   9.198   8.648
27687SOL    HW287909   9.228   9.111   8.595
27688SOL     OW87910   8.715   9.167   8.494
27688SOL    HW187911   8.804   9.201   8.486
27688SOL    HW287912   8.725   9.083   8.539
27689SOL     OW87913   7.537   8.731   8.465
27689SOL    HW187914   7.538   8.731   8.560
27689SOL    HW287915   7.460   8.783   8.441
27690SOL     OW87916   8.144   9.142   9.207
27690SOL    HW187917   8.075   9.208   9.198
27690SOL    HW287918   8.223   9.185   9.175
27691SOL     OW87919   9.201   7.601   7.952
27691SOL    HW187920   9.236   7.551   7.878
27691SOL    HW287921   9.162   7.535   8.009
27692SOL     OW87922   8.844   9.019   7.960
27692SOL    HW187923   8.900   9.051   7.889
27692SOL    HW287924   8.792   9.095   7.985
27693SOL     OW87925   7.609   9.237   9.268
27693SOL    HW187926   7.555   9.185   9.328
27693SOL    HW287927   7.670   9.283   9.325
27694SOL     OW87928   8.676   8.408   8.103
27694SOL    HW187929   8.746   8.360   8.148
27694SOL    HW287930   8.722   8.469   8.045
27695SOL     OW87931   8.262   8.749   8.874
27695SOL    HW187932   8.247   8.782   8.963
27695SOL    HW287933   8.198   8.797   8.820
27696SOL     OW87934   8.086   9.037   7.613
27696SOL    HW187935   8.090   9.064   7.522
27696SOL    HW287936   8.034   8.957   7.613
27697SOL     OW87937   9.031   9.159   8.838
27697SOL    HW187938   9.102   9.159   8.775
27697SOL    HW287939   9.012   9.252   8.852
27698SOL     OW87940   9.324   7.625   8.392
27698SOL    HW187941   9.346   7.532   8.380
27698SOL    HW287942   9.234   7.633   8.361
27699SOL     OW87943   7.700   7.711   8.159
27699SOL    HW187944   7.609   7.735   8.144
27699SOL    HW287945   7.712   7.720   8.253
27700SOL     OW87946   8.679   9.071   7.423
27700SOL    HW187947   8.651   9.005   7.360
27700SOL    HW287948   8.614   9.140   7.417
27701SOL     OW87949   8.276   8.476   8.788
27701SOL    HW187950   8.257   8.504   8.699
27701SOL    HW287951   8.280   8.557   8.839
27702SOL     OW87952   8.388   8.354   7.756
27702SOL    HW187953   8.407   8.370   7.664
27702SOL    HW287954   8.442   8.279   7.779
27703SOL     OW87955   8.940   9.087   7.503
27703SOL    HW187956   8.849   9.075   7.476
27703SOL    HW287957   8.989   9.098   7.422
27704SOL     OW87958   7.802   8.752   8.948
27704SOL    HW187959   7.787   8.826   8.889
27704SOL    HW287960   7.720   8.703   8.946
27705SOL     OW87961   9.089   8.724   8.652
27705SOL    HW187962   9.182   8.712   8.672
27705SOL    HW287963   9.084   8.809   8.608
27706SOL     OW87964   8.442   8.549   8.168
27706SOL    HW187965   8.425   8.497   8.247
27706SOL    HW287966   8.520   8.509   8.129
27707SOL     OW87967   8.499   7.679   8.382
27707SOL    HW187968   8.496   7.626   8.302
27707SOL    HW287969   8.493   7.615   8.453
27708SOL     OW87970   8.053   8.966   7.950
27708SOL    HW187971   8.095   8.907   7.888
27708SOL    HW287972   7.997   9.023   7.896
27709SOL     OW87973   9.197   7.848   8.810
27709SOL    HW187974   9.277   7.901   8.807
27709SOL    HW287975   9.213   7.775   8.750
27710SOL     OW87976   7.684   8.789   7.804
27710SOL    HW187977   7.613   8.796   7.741
27710SOL    HW287978   7.654   8.838   7.880
27711SOL     OW87979   7.548   8.451   9.191
27711SOL    HW187980   7.483   8.450   9.261
27711SOL    HW287981   7.632   8.435   9.235
27712SOL     OW87982   8.172   7.644   8.892
27712SOL    HW187983   8.253   7.607   8.856
27712SOL    HW287984   8.194   7.667   8.982
27713SOL     OW87985   7.528   7.751   7.491
27713SOL    HW187986   7.473   7.770   7.415
27713SOL    HW287987   7.562   7.837   7.517
27714SOL     OW87988   8.861   8.261   8.820
27714SOL    HW187989   8.813   8.276   8.739
27714SOL    HW287990   8.952   8.281   8.799
27715SOL     OW87991   7.507   7.568   7.699
27715SOL    HW187992   7.493   7.634   7.632
27715SOL    HW287993   7.595   7.534   7.681
27716SOL     OW87994   8.652   8.710   7.600
27716SOL    HW187995   8.567   8.743   7.572
27716SOL    HW287996   8.666   8.749   7.686
27717SOL     OW87997   8.042   8.302   8.839
27717SOL    HW187998   8.107   8.371   8.844
27717SOL    HW287999   8.089   8.223   8.866
27718SOL     OW88000   8.981   9.233   8.472
27718SOL    HW188001   8.995   9.308   8.414
27718SOL    HW288002   9.063   9.224   8.521
27719SOL     OW88003   8.037   8.040   9.217
27719SOL    HW188004   8.075   8.128   9.224
27719SOL    HW288005   8.110   7.981   9.238
27720SOL     OW88006   8.922   8.615   9.071
27720SOL    HW188007   8.889   8.634   9.158
27720SOL    HW288008   9.016   8.631   9.077
27721SOL     OW88009   7.799   9.158   9.010
27721SOL    HW188010   7.718   9.205   8.988
27721SOL    HW288011   7.770   9.079   9.055
27722SOL     OW88012   9.093   8.323   8.674
27722SOL    HW188013   9.097   8.234   8.639
27722SOL    HW288014   9.090   8.379   8.596
27723SOL     OW88015   8.701   7.745   7.896
27723SOL    HW188016   8.755   7.671   7.924
27723SOL    HW288017   8.682   7.793   7.977
27724SOL     OW88018   8.025   8.230   8.132
27724SOL    HW188019   8.042   8.313   8.088
27724SOL    HW288020   7.966   8.183   8.073
27725SOL     OW88021   9.233   7.793   9.077
27725SOL    HW188022   9.212   7.818   8.988
27725SOL    HW288023   9.156   7.745   9.108
27726SOL     OW88024   9.165   8.398   8.928
27726SOL    HW188025   9.245   8.451   8.928
27726SOL    HW288026   9.154   8.372   8.836
27727SOL     OW88027   8.279   8.811   7.487
27727SOL    HW188028   8.262   8.869   7.561
27727SOL    HW288029   8.314   8.869   7.418
27728SOL     OW88030   8.100   9.235   8.371
27728SOL    HW188031   8.080   9.329   8.371
27728SOL    HW288032   8.196   9.231   8.375
27729SOL     OW88033   8.359   8.392   8.385
27729SOL    HW188034   8.427   8.332   8.415
27729SOL    HW288035   8.353   8.458   8.455
27730SOL     OW88036   8.450   8.383   7.489
27730SOL    HW188037   8.424   8.425   7.407
27730SOL    HW288038   8.541   8.356   7.474
27731SOL     OW88039   9.334   8.986   8.322
27731SOL    HW188040   9.283   9.019   8.248
27731SOL    HW288041   9.384   9.061   8.354
27732SOL     OW88042   7.723   8.752   9.345
27732SOL    HW188043   7.644   8.701   9.325
27732SOL    HW288044   7.717   8.769   9.439
27733SOL     OW88045   7.503   8.667   8.140
27733SOL    HW188046   7.583   8.628   8.174
27733SOL    HW288047   7.533   8.745   8.092
27734SOL     OW88048   8.169   8.877   9.103
27734SOL    HW188049   8.087   8.837   9.131
27734SOL    HW288050   8.164   8.967   9.133
27735SOL     OW88051   9.220   7.628   8.650
27735SOL    HW188052   9.216   7.533   8.662
27735SOL    HW288053   9.265   7.639   8.566
27736SOL     OW88054   7.837   7.856   7.962
27736SOL    HW188055   7.876   7.795   7.899
27736SOL    HW288056   7.798   7.799   8.028
27737SOL     OW88057   9.139   8.962   8.515
27737SOL    HW188058   9.057   8.959   8.466
27737SOL    HW288059   9.208   8.961   8.448
27738SOL     OW88060   7.780   7.983   8.777
27738SOL    HW188061   7.833   7.919   8.823
27738SOL    HW288062   7.783   7.956   8.685
27739SOL     OW88063   8.273   9.079   8.081
27739SOL    HW188064   8.282   9.164   8.037
27739SOL    HW288065   8.193   9.041   8.044
27740SOL     OW88066   8.899   7.713   8.579
27740SOL    HW188067   8.956   7.656   8.630
27740SOL    HW288068   8.836   7.746   8.642
27741SOL     OW88069   8.484   7.444   8.541
27741SOL    HW188070   8.428   7.379   8.499
27741SOL    HW288071   8.571   7.405   8.538
27742SOL     OW88072   8.192   8.778   7.809
27742SOL    HW188073   8.192   8.682   7.814
27742SOL    HW288074   8.282   8.803   7.829
27743SOL     OW88075   8.067   8.962   8.758
27743SOL    HW188076   8.060   9.046   8.803
27743SOL    HW288077   8.142   8.973   8.699
27744SOL     OW88078   8.836   7.449   7.658
27744SOL    HW188079   8.884   7.382   7.609
27744SOL    HW288080   8.746   7.416   7.663
27745SOL     OW88081   8.635   7.898   8.122
27745SOL    HW188082   8.622   7.993   8.127
27745SOL    HW288083   8.679   7.875   8.203
27746SOL     OW88084   9.052   7.659   8.349
27746SOL    HW188085   9.001   7.689   8.424
27746SOL    HW288086   9.045   7.730   8.285
27747SOL     OW88087   7.468   8.509   7.746
27747SOL    HW188088   7.562   8.498   7.732
27747SOL    HW288089   7.438   8.422   7.773
27748SOL     OW88090   8.315   9.119   7.765
27748SOL    HW188091   8.242   9.105   7.705
27748SOL    HW288092   8.297   9.203   7.807
27749SOL     OW88093   7.681   8.139   9.484
27749SOL    HW188094   7.602   8.176   9.523
27749SOL    HW288095   7.654   8.111   9.397
27750SOL     OW88096   9.243   8.028   9.499
27750SOL    HW188097   9.203   8.020   9.412
27750SOL    HW288098   9.198   7.963   9.553
27751SOL     OW88099   7.688   9.198   9.760
27751SOL    HW188100   7.697   9.273   9.818
27751SOL    HW288101   7.773   9.189   9.718
27752SOL     OW88102   7.666   8.943   9.860
27752SOL    HW188103   7.669   9.033   9.827
27752SOL    HW288104   7.619   8.949   9.943
27753SOL     OW88105   8.012   8.450   9.460
27753SOL    HW188106   8.064   8.498   9.395
27753SOL    HW288107   8.050   8.475   9.544
27754SOL     OW88108   7.584   8.157   9.860
27754SOL    HW188109   7.593   8.075   9.908
27754SOL    HW288110   7.586   8.225   9.927
27755SOL     OW88111   9.273   9.193   9.647
27755SOL    HW188112   9.347   9.178   9.705
27755SOL    HW288113   9.286   9.282   9.614
27756SOL     OW88114   7.502   9.042   9.430
27756SOL    HW188115   7.483   8.951   9.455
27756SOL    HW288116   7.473   9.094   9.505
27757SOL     OW88117   9.110   8.346   9.933
27757SOL    HW188118   9.184   8.363   9.990
27757SOL    HW288119   9.112   8.418   9.869
27758SOL     OW88120   9.179   8.557   9.757
27758SOL    HW188121   9.257   8.543   9.704
27758SOL    HW288122   9.198   8.637   9.806
27759SOL     OW88123   8.145   8.757   9.945
27759SOL    HW188124   8.080   8.692   9.972
27759SOL    HW288125   8.097   8.818   9.889
27760SOL     OW88126   8.216   7.467   9.772
27760SOL    HW188127   8.282   7.536   9.767
27760SOL    HW288128   8.137   7.511   9.801
27761SOL     OW88129   8.990   8.514   9.551
27761SOL    HW188130   8.914   8.523   9.609
27761SOL    HW288131   9.065   8.526   9.609
27762SOL     OW88132   8.034   8.156   9.571
27762SOL    HW188133   8.044   8.244   9.535
27762SOL    HW288134   7.975   8.168   9.646
27763SOL     OW88135   9.007   9.106   9.634
27763SOL    HW188136   9.098   9.134   9.644
27763SOL    HW288137   8.998   9.084   9.541
27764SOL     OW88138   8.448   8.137   9.741
27764SOL    HW188139   8.481   8.114   9.828
27764SOL    HW288140   8.365   8.091   9.734
27765SOL     OW88141   7.605   8.308   0.089
27765SOL    HW188142   7.654   8.335   0.166
27765SOL    HW288143   7.568   8.390   0.054
27766SOL     OW88144   8.352   7.713   9.464
27766SOL    HW188145   8.325   7.785   9.407
27766SOL    HW288146   8.409   7.659   9.409
27767SOL     OW88147   8.809   8.586   9.746
27767SOL    HW188148   8.829   8.592   9.840
27767SOL    HW288149   8.760   8.666   9.727
27768SOL     OW88150   8.432   8.876   9.806
27768SOL    HW188151   8.406   8.959   9.765
27768SOL    HW288152   8.408   8.885   9.898
27769SOL     OW88153   7.849   9.306   0.158
27769SOL    HW188154   7.849   9.248   0.234
27769SOL    HW288155   7.938   9.342   0.155
27770SOL     OW88156   7.776   8.393   9.592
27770SOL    HW188157   7.857   8.418   9.545
27770SOL    HW288158   7.759   8.303   9.564
27771SOL     OW88159   8.613   9.201   9.566
27771SOL    HW188160   8.529   9.170   9.599
27771SOL    HW288161   8.629   9.149   9.487
27772SOL     OW88162   9.076   8.825   9.388
27772SOL    HW188163   9.038   8.913   9.382
27772SOL    HW288164   9.003   8.767   9.367
27773SOL     OW88165   7.947   9.187   9.649
27773SOL    HW188166   7.987   9.247   9.711
27773SOL    HW288167   8.018   9.165   9.588
27774SOL     OW88168   8.888   7.581   9.669
27774SOL    HW188169   8.866   7.488   9.682
27774SOL    HW288170   8.974   7.591   9.711
27775SOL     OW88171   7.860   8.146   9.790
27775SOL    HW188172   7.864   8.053   9.816
27775SOL    HW288173   7.767   8.168   9.795
27776SOL     OW88174   8.099   7.624   9.394
27776SOL    HW188175   8.181   7.636   9.441
27776SOL    HW288176   8.122   7.632   9.302
27777SOL     OW88177   7.971   7.580   9.837
27777SOL    HW188178   7.885   7.563   9.875
27777SOL    HW288179   7.953   7.616   9.750
27778SOL     OW88180   8.861   8.650   9.340
27778SOL    HW188181   8.899   8.595   9.408
27778SOL    HW288182   8.778   8.681   9.376
27779SOL     OW88183   7.757   7.488   9.488
27779SOL    HW188184   7.805   7.567   9.512
27779SOL    HW288185   7.806   7.416   9.529
27780SOL     OW88186   8.389   7.683   9.737
27780SOL    HW188187   8.378   7.693   9.643
27780SOL    HW288188   8.484   7.689   9.751
27781SOL     OW88189   7.919   8.615   0.032
27781SOL    HW188190   7.900   8.702   0.066
27781SOL    HW288191   7.861   8.605   9.957
27782SOL     OW88192   8.719   9.313   9.878
27782SOL    HW188193   8.784   9.372   9.842
27782SOL    HW288194   8.637   9.337   9.836
27783SOL     OW88195   8.280   7.849   9.930
27783SOL    HW188196   8.238   7.913   9.873
27783SOL    HW288197   8.318   7.785   9.870
27784SOL     OW88198   9.314   8.260   9.624
27784SOL    HW188199   9.358   8.223   9.700
27784SOL    HW288200   9.293   8.185   9.569
27785SOL     OW88201   7.945   8.880   9.479
27785SOL    HW188202   7.882   8.861   9.548
27785SOL    HW288203   7.909   8.838   9.401
27786SOL     OW88204   7.919   7.688   9.588
27786SOL    HW188205   7.986   7.664   9.525
27786SOL    HW288206   7.897   7.779   9.566
27787SOL     OW88207   8.137   8.508   9.693
27787SOL    HW188208   8.104   8.460   9.769
27787SOL    HW288209   8.221   8.466   9.673
27788SOL     OW88210   7.751   8.585   9.804
27788SOL    HW188211   7.750   8.661   9.746
27788SOL    HW288212   7.765   8.510   9.746
27789SOL     OW88213   8.675   8.826   9.690
27789SOL    HW188214   8.725   8.900   9.723
27789SOL    HW288215   8.590   8.834   9.732
27790SOL     OW88216   9.122   8.106   9.798
27790SOL    HW188217   9.091   8.175   9.857
27790SOL    HW288218   9.127   8.148   9.712
27791SOL     OW88219   7.714   7.542   9.947
27791SOL    HW188220   7.668   7.615   9.990
27791SOL    HW288221   7.750   7.491   0.020
27792SOL     OW88222   9.096   7.861   9.659
27792SOL    HW188223   9.109   7.780   9.707
27792SOL    HW288224   9.089   7.929   9.726
27793SOL     OW88225   9.009   7.692   9.439
27793SOL    HW188226   8.960   7.643   9.504
27793SOL    HW288227   9.040   7.769   9.486
27794SOL     OW88228   8.760   8.240   9.318
27794SOL    HW188229   8.781   8.147   9.315
27794SOL    HW288230   8.790   8.274   9.234
27795SOL     OW88231   7.467   8.765   9.502
27795SOL    HW188232   7.377   8.775   9.470
27795SOL    HW288233   7.480   8.670   9.505
27796SOL     OW88234   8.228   7.987   9.668
27796SOL    HW188235   8.231   7.922   9.598
27796SOL    HW288236   8.163   8.050   9.639
27797SOL     OW88237   7.874   7.937   9.483
27797SOL    HW188238   7.950   7.996   9.486
27797SOL    HW288239   7.798   7.996   9.494
27798SOL     OW88240   9.153   7.607   9.756
27798SOL    HW188241   9.226   7.605   9.695
27798SOL    HW288242   9.180   7.549   9.828
27799SOL     OW88243   8.803   9.052   9.811
27799SOL    HW188244   8.875   9.063   9.749
27799SOL    HW288245   8.766   9.140   9.820
27800SOL     OW88246   8.141   9.069   9.476
27800SOL    HW188247   8.146   9.099   9.385
27800SOL    HW288248   8.078   8.997   9.474
27801SOL     OW88249   8.662   9.040   9.344
27801SOL    HW188250   8.652   8.949   9.372
27801SOL    HW288251   8.588   9.055   9.284
27802SOL     OW88252   8.363   8.377   9.620
27802SOL    HW188253   8.431   8.391   9.554
27802SOL    HW288254   8.399   8.310   9.678
27803SOL     OW88255   8.938   9.074   9.365
27803SOL    HW188256   8.843   9.069   9.354
27803SOL    HW288257   8.973   9.087   9.277
27804SOL     OW88258   8.025   8.928   9.767
27804SOL    HW188259   8.078   8.890   9.697
27804SOL    HW288260   7.986   9.007   9.728
27805SOL     OW88261   7.709   8.806   9.627
27805SOL    HW188262   7.618   8.802   9.600
27805SOL    HW288263   7.707   8.856   9.709
27806SOL     OW88264   7.563   7.769   9.323
27806SOL    HW188265   7.486   7.765   9.266
27806SOL    HW288266   7.594   7.859   9.316
27807SOL     OW88267   7.505   7.595   9.545
27807SOL    HW188268   7.508   7.664   9.478
27807SOL    HW288269   7.593   7.557   9.544
27808SOL     OW88270   8.616   8.775   9.423
27808SOL    HW188271   8.521   8.765   9.422
27808SOL    HW288272   8.638   8.786   9.516
27809SOL     OW88273   8.661   7.704   9.777
27809SOL    HW188274   8.741   7.676   9.732
27809SOL    HW288275   8.691   7.767   9.842
27810SOL     OW88276   8.045   8.334   9.884
27810SOL    HW188277   8.047   8.336   9.979
27810SOL    HW288278   7.980   8.268   9.862
27811SOL     OW88279   8.331   8.798   9.392
27811SOL    HW188280   8.292   8.795   9.479
27811SOL    HW288281   8.320   8.888   9.363
27812SOL     OW88282   8.548   8.385   9.412
27812SOL    HW188283   8.511   8.444   9.347
27812SOL    HW288284   8.636   8.364   9.378
27813SOL     OW88285   7.525   8.545   9.965
27813SOL    HW188286   7.508   8.619   0.023
27813SOL    HW288287   7.604   8.570   9.917
27814SOL     OW88288   7.860   7.886   9.883
27814SOL    HW188289   7.910   7.808   9.856
27814SOL    HW288290   7.874   7.891   9.978
27815SOL     OW88291   8.227   8.768   9.642
27815SOL    HW188292   8.190   8.683   9.668
27815SOL    HW288293   8.293   8.787   9.708
27816SOL     OW88294   8.754   7.500   9.393
27816SOL    HW188295   8.758   7.594   9.413
27816SOL    HW288296   8.688   7.466   9.452
27817SOL     OW88297   7.537   8.499   9.506
27817SOL    HW188298   7.627   8.478   9.532
27817SOL    HW288299   7.484   8.429   9.544
27818SOL     OW88300   8.361   9.095   9.648
27818SOL    HW188301   8.292   9.079   9.583
27818SOL    HW288302   8.328   9.169   9.699
27819SOL     OW88303   7.690   9.450   1.131
27819SOL    HW188304   7.718   9.538   1.158
27819SOL    HW288305   7.596   9.449   1.147
27820SOL     OW88306   7.439   9.703   0.668
27820SOL    HW188307   7.453   9.632   0.732
27820SOL    HW288308   7.463   9.664   0.584
27821SOL     OW88309   9.181   9.871   0.189
27821SOL    HW188310   9.117   9.924   0.142
27821SOL    HW288311   9.149   9.869   0.280
27822SOL     OW88312   7.807   9.751   1.488
27822SOL    HW188313   7.903   9.757   1.487
27822SOL    HW288314   7.784   9.737   1.396
27823SOL     OW88315   8.986   9.711   0.738
27823SOL    HW188316   8.902   9.716   0.692
27823SOL    HW288317   8.980   9.777   0.807
27824SOL     OW88318   9.021   9.467   1.421
27824SOL    HW188319   9.103   9.506   1.389
27824SOL    HW288320   9.007   9.509   1.506
27825SOL     OW88321   7.472   9.977   0.603
27825SOL    HW188322   7.467   9.886   0.632
27825SOL    HW288323   7.565   9.998   0.605
27826SOL     OW88324   8.731   9.663   0.949
27826SOL    HW188325   8.652   9.610   0.959
27826SOL    HW288326   8.789   9.634   1.019
27827SOL     OW88327   8.172   9.881   1.485
27827SOL    HW188328   8.216   9.965   1.472
27827SOL    HW288329   8.175   9.838   1.399
27828SOL     OW88330   8.859   9.798   1.686
27828SOL    HW188331   8.917   9.855   1.737
27828SOL    HW288332   8.898   9.710   1.695
27829SOL     OW88333   8.442   9.698   1.159
27829SOL    HW188334   8.364   9.728   1.205
27829SOL    HW288335   8.415   9.691   1.067
27830SOL     OW88336   8.441   0.021   0.421
27830SOL    HW188337   8.463   0.095   0.478
27830SOL    HW288338   8.378   9.969   0.471
27831SOL     OW88339   8.367   9.665   0.202
27831SOL    HW188340   8.444   9.723   0.201
27831SOL    HW288341   8.387   9.598   0.137
27832SOL     OW88342   9.066   9.924   1.836
27832SOL    HW188343   9.112   0.003   1.809
27832SOL    HW288344   9.117   9.852   1.800
27833SOL     OW88345   7.934   9.563   0.921
27833SOL    HW188346   7.958   9.542   1.011
27833SOL    HW288347   7.964   9.653   0.908
27834SOL     OW88348   8.945   0.041   0.656
27834SOL    HW188349   8.886   9.990   0.711
27834SOL    HW288350   8.988   0.102   0.716
27835SOL     OW88351   8.815   9.437   0.420
27835SOL    HW188352   8.802   9.413   0.328
27835SOL    HW288353   8.889   9.498   0.418
27836SOL     OW88354   8.958   9.537   1.719
27836SOL    HW188355   8.962   9.541   1.814
27836SOL    HW288356   8.900   9.463   1.701
27837SOL     OW88357   8.104   9.410   0.106
27837SOL    HW188358   8.199   9.416   0.102
27837SOL    HW288359   8.076   9.406   0.015
27838SOL     OW88360   8.217   9.521   1.758
27838SOL    HW188361   8.310   9.504   1.776
27838SOL    HW288362   8.209   9.616   1.755
27839SOL     OW88363   8.788   9.899   1.434
27839SOL    HW188364   8.816   9.865   1.519
27839SOL    HW288365   8.843   9.975   1.418
27840SOL     OW88366   7.997   9.393   0.515
27840SOL    HW188367   7.911   9.393   0.556
27840SOL    HW288368   7.991   9.462   0.448
27841SOL     OW88369   8.388   9.463   0.398
27841SOL    HW188370   8.362   9.524   0.328
27841SOL    HW288371   8.470   9.499   0.432
27842SOL     OW88372   8.522   9.922   1.518
27842SOL    HW188373   8.461   9.966   1.458
27842SOL    HW288374   8.607   9.932   1.476
27843SOL     OW88375   7.975   9.605   1.195
27843SOL    HW188376   7.973   9.538   1.263
27843SOL    HW288377   7.892   9.652   1.204
27844SOL     OW88378   8.535   9.404   0.707
27844SOL    HW188379   8.562   9.487   0.668
27844SOL    HW288380   8.538   9.421   0.801
27845SOL     OW88381   8.925   9.891   0.931
27845SOL    HW188382   8.838   9.863   0.962
27845SOL    HW288383   8.972   9.915   1.010
27846SOL     OW88384   8.022   9.578   0.315
27846SOL    HW188385   8.050   9.531   0.237
27846SOL    HW288386   8.054   9.668   0.302
27847SOL     OW88387   8.401   9.355   1.402
27847SOL    HW188388   8.422   9.336   1.311
27847SOL    HW288389   8.470   9.414   1.431
27848SOL     OW88390   8.689   9.683   1.282
27848SOL    HW188391   8.711   9.767   1.321
27848SOL    HW288392   8.606   9.699   1.237
27849SOL     OW88393   7.977   9.841   0.906
27849SOL    HW188394   8.013   9.869   0.822
27849SOL    HW288395   8.042   9.867   0.970
27850SOL     OW88396   9.078   9.889   0.451
27850SOL    HW188397   9.018   9.935   0.510
27850SOL    HW288398   9.165   9.912   0.483
27851SOL     OW88399   8.487   9.491   1.813
27851SOL    HW188400   8.526   9.568   1.771
27851SOL    HW288401   8.535   9.417   1.775
27852SOL     OW88402   7.862   9.353   1.735
27852SOL    HW188403   7.821   9.295   1.670
27852SOL    HW288404   7.809   9.432   1.734
27853SOL     OW88405   8.582   9.845   0.270
27853SOL    HW188406   8.610   9.790   0.343
27853SOL    HW288407   8.527   9.912   0.310
27854SOL     OW88408   8.232   9.921   0.979
27854SOL    HW188409   8.273   9.839   0.951
27854SOL    HW288410   8.222   9.972   0.899
27855SOL     OW88411   7.747   9.365   0.638
27855SOL    HW188412   7.720   9.454   0.661
27855SOL    HW288413   7.761   9.322   0.722
27856SOL     OW88414   9.020   9.618   0.385
27856SOL    HW188415   9.093   9.579   0.434
27856SOL    HW288416   9.028   9.712   0.402
27857SOL     OW88417   9.044   9.391   0.204
27857SOL    HW188418   8.953   9.389   0.174
27857SOL    HW288419   9.055   9.478   0.241
27858SOL     OW88420   7.675   0.101   0.906
27858SOL    HW188421   7.761   0.141   0.915
27858SOL    HW288422   7.689   0.009   0.924
27859SOL     OW88423   7.707   9.831   0.933
27859SOL    HW188424   7.686   9.838   1.026
27859SOL    HW288425   7.803   9.828   0.930
27860SOL     OW88426   8.598   9.704   1.671
27860SOL    HW188427   8.550   9.774   1.627
27860SOL    HW288428   8.684   9.741   1.688
27861SOL     OW88429   8.618   9.505   1.481
27861SOL    HW188430   8.608   9.573   1.548
27861SOL    HW288431   8.650   9.552   1.404
27862SOL     OW88432   7.676   9.930   1.649
27862SOL    HW188433   7.715   9.860   1.595
27862SOL    HW288434   7.637   9.883   1.723
27863SOL     OW88435   8.159   9.822   0.285
27863SOL    HW188436   8.238   9.774   0.260
27863SOL    HW288437   8.180   9.861   0.370
27864SOL     OW88438   9.074   9.922   1.165
27864SOL    HW188439   9.047   9.880   1.247
27864SOL    HW288440   9.161   9.885   1.148
27865SOL     OW88441   8.185   9.787   1.227
27865SOL    HW188442   8.120   9.722   1.201
27865SOL    HW288443   8.196   9.841   1.149
27866SOL     OW88444   8.379   9.421   0.067
27866SOL    HW188445   8.408   9.444   9.979
27866SOL    HW288446   8.439   9.352   0.095
27867SOL     OW88447   9.224   9.470   0.494
27867SOL    HW188448   9.295   9.475   0.429
27867SOL    HW288449   9.196   9.379   0.492
27868SOL     OW88450   9.284   9.478   0.971
27868SOL    HW188451   9.311   9.388   0.951
27868SOL    HW288452   9.194   9.483   0.940
27869SOL     OW88453   7.726   9.617   0.753
27869SOL    HW188454   7.692   9.693   0.800
27869SOL    HW288455   7.796   9.583   0.809
27870SOL     OW88456   8.531   9.472   0.974
27870SOL    HW188457   8.441   9.500   0.958
27870SOL    HW288458   8.528   9.425   1.058
27871SOL     OW88459   9.229   9.708   1.432
27871SOL    HW188460   9.286   9.783   1.414
27871SOL    HW288461   9.239   9.651   1.355
27872SOL     OW88462   8.151   9.396   1.511
27872SOL    HW188463   8.236   9.395   1.466
27872SOL    HW288464   8.163   9.456   1.585
27873SOL     OW88465   7.530   9.569   0.029
27873SOL    HW188466   7.456   9.537   9.977
27873SOL    HW288467   7.512   9.662   0.041
27874SOL     OW88468   7.508   9.459   0.288
27874SOL    HW188469   7.514   9.493   0.199
27874SOL    HW288470   7.586   9.493   0.332
27875SOL     OW88471   8.221   9.794   1.741
27875SOL    HW188472   8.250   9.876   1.781
27875SOL    HW288473   8.200   9.818   1.650
27876SOL     OW88474   8.607   9.598   0.507
27876SOL    HW188475   8.687   9.552   0.482
27876SOL    HW288476   8.636   9.668   0.565
27877SOL     OW88477   9.178   9.709   1.701
27877SOL    HW188478   9.194   9.715   1.607
27877SOL    HW288479   9.117   9.637   1.711
27878SOL     OW88480   8.595   0.203   0.018
27878SOL    HW188481   8.531   0.263   0.057
27878SOL    HW288482   8.543   0.128   9.989
27879SOL     OW88483   9.254   9.511   1.246
27879SOL    HW188484   9.334   9.463   1.270
27879SOL    HW288485   9.252   9.509   1.151
27880SOL     OW88486   7.763   9.678   0.486
27880SOL    HW188487   7.855   9.705   0.488
27880SOL    HW288488   7.740   9.664   0.578
27881SOL     OW88489   8.900   9.561   1.160
27881SOL    HW188490   8.948   9.514   1.229
27881SOL    HW288491   8.827   9.603   1.206
27882SOL     OW88492   8.481   9.261   1.157
27882SOL    HW188493   8.416   9.228   1.095
27882SOL    HW288494   8.564   9.224   1.126
27883SOL     OW88495   8.772   9.353   0.153
27883SOL    HW188496   8.771   9.350   0.057
27883SOL    HW288497   8.689   9.315   0.179
27884SOL     OW88498   8.695   9.774   0.697
27884SOL    HW188499   8.633   9.847   0.700
27884SOL    HW288500   8.702   9.745   0.788
27885SOL     OW88501   9.016   9.492   0.916
27885SOL    HW188502   8.975   9.524   0.996
27885SOL    HW288503   8.998   9.560   0.851
27886SOL     OW88504   7.600   9.631   2.839
27886SOL    HW188505   7.615   9.564   2.905
27886SOL    HW288506   7.553   9.586   2.769
27887SOL     OW88507   9.074   9.984   2.114
27887SOL    HW188508   9.080   9.943   2.027
27887SOL    HW288509   9.143   0.050   2.114
27888SOL     OW88510   7.871   9.588   3.307
27888SOL    HW188511   7.961   9.576   3.276
27888SOL    HW288512   7.843   9.671   3.269
27889SOL     OW88513   9.046   9.725   2.604
27889SOL    HW188514   9.020   9.766   2.522
27889SOL    HW288515   9.014   9.784   2.672
27890SOL     OW88516   9.002   9.423   3.308
27890SOL    HW188517   9.000   9.515   3.333
27890SOL    HW288518   9.090   9.394   3.329
27891SOL     OW88519   7.530   9.992   2.587
27891SOL    HW188520   7.576   9.909   2.595
27891SOL    HW288521   7.483   9.985   2.504
27892SOL     OW88522   7.849   9.566   3.638
27892SOL    HW188523   7.922   9.626   3.651
27892SOL    HW288524   7.773   9.623   3.629
27893SOL     OW88525   8.754   9.670   2.817
27893SOL    HW188526   8.674   9.618   2.812
27893SOL    HW288527   8.810   9.623   2.878
27894SOL     OW88528   8.175   9.820   3.375
27894SOL    HW188529   8.236   9.892   3.390
27894SOL    HW288530   8.147   9.831   3.284
27895SOL     OW88531   8.855   9.796   3.552
27895SOL    HW188532   8.915   9.869   3.569
27895SOL    HW288533   8.907   9.717   3.567
27896SOL     OW88534   8.465   9.701   3.050
27896SOL    HW188535   8.458   9.767   3.119
27896SOL    HW288536   8.427   9.744   2.973
27897SOL     OW88537   8.391   9.662   2.039
27897SOL    HW188538   8.437   9.742   2.011
27897SOL    HW288539   8.415   9.597   1.973
27898SOL     OW88540   7.926   9.528   2.772
27898SOL    HW188541   7.991   9.460   2.758
27898SOL    HW288542   7.972   9.610   2.753
27899SOL     OW88543   8.919   0.022   2.576
27899SOL    HW188544   8.924   9.983   2.664
27899SOL    HW288545   8.963   0.106   2.585
27900SOL     OW88546   7.605   9.546   3.381
27900SOL    HW188547   7.572   9.635   3.370
27900SOL    HW288548   7.700   9.554   3.373
27901SOL     OW88549   8.801   9.416   2.319
27901SOL    HW188550   8.804   9.378   2.231
27901SOL    HW288551   8.877   9.474   2.324
27902SOL     OW88552   9.036   9.596   3.601
27902SOL    HW188553   9.090   9.630   3.672
27902SOL    HW288554   9.070   9.507   3.586
27903SOL     OW88555   8.062   9.361   1.927
27903SOL    HW188556   8.123   9.416   1.879
27903SOL    HW288557   7.982   9.362   1.874
27904SOL     OW88558   8.156   9.497   3.648
27904SOL    HW188559   8.251   9.487   3.644
27904SOL    HW288560   8.141   9.591   3.646
27905SOL     OW88561   8.753   9.882   3.307
27905SOL    HW188562   8.793   9.844   3.386
27905SOL    HW288563   8.794   9.968   3.298
27906SOL     OW88564   8.400   9.775   2.765
27906SOL    HW188565   8.359   9.766   2.679
27906SOL    HW288566   8.452   9.695   2.776
27907SOL     OW88567   7.986   9.512   2.328
27907SOL    HW188568   7.966   9.580   2.392
27907SOL    HW288569   7.970   9.554   2.243
27908SOL     OW88570   7.737   9.410   2.053
27908SOL    HW188571   7.700   9.497   2.037
27908SOL    HW288572   7.828   9.427   2.077
27909SOL     OW88573   8.390   9.575   2.316
27909SOL    HW188574   8.371   9.594   2.225
27909SOL    HW288575   8.480   9.605   2.329
27910SOL     OW88576   8.487   9.901   3.234
27910SOL    HW188577   8.438   9.947   3.303
27910SOL    HW288578   8.578   9.904   3.263
27911SOL     OW88579   8.523   9.904   1.953
27911SOL    HW188580   8.494   9.955   1.877
27911SOL    HW288581   8.618   9.910   1.952
27912SOL     OW88582   7.621   9.854   3.370
27912SOL    HW188583   7.682   9.845   3.297
27912SOL    HW288584   7.603   9.948   3.375
27913SOL     OW88585   8.034   9.537   3.030
27913SOL    HW188586   8.104   9.477   3.004
27913SOL    HW288587   7.973   9.536   2.957
27914SOL     OW88588   8.293   9.755   2.516
27914SOL    HW188589   8.289   9.842   2.477
27914SOL    HW288590   8.314   9.696   2.444
27915SOL     OW88591   8.378   9.335   2.481
27915SOL    HW188592   8.388   9.417   2.433
27915SOL    HW288593   8.399   9.357   2.571
27916SOL     OW88594   8.929   9.880   2.806
27916SOL    HW188595   8.861   9.816   2.826
27916SOL    HW288596   8.975   9.893   2.888
27917SOL     OW88597   7.931   9.619   2.080
27917SOL    HW188598   7.989   9.647   2.009
27917SOL    HW288599   7.844   9.650   2.055
27918SOL     OW88600   8.363   9.399   3.276
27918SOL    HW188601   8.384   9.378   3.185
27918SOL    HW288602   8.442   9.441   3.309
27919SOL     OW88603   8.724   9.656   3.148
27919SOL    HW188604   8.743   9.739   3.191
27919SOL    HW288605   8.641   9.671   3.102
27920SOL     OW88606   8.033   9.783   2.756
27920SOL    HW188607   8.049   9.792   2.662
27920SOL    HW288608   8.099   9.839   2.797
27921SOL     OW88609   8.997   9.864   2.357
27921SOL    HW188610   8.969   9.935   2.415
27921SOL    HW288611   9.029   9.909   2.279
27922SOL     OW88612   8.435   9.513   3.649
27922SOL    HW188613   8.481   9.588   3.611
27922SOL    HW288614   8.490   9.438   3.627
27923SOL     OW88615   8.621   9.928   2.265
27923SOL    HW188616   8.636   9.838   2.293
27923SOL    HW288617   8.699   9.975   2.293
27924SOL     OW88618   7.654   9.469   3.072
27924SOL    HW188619   7.702   9.496   3.150
27924SOL    HW288620   7.706   9.396   3.036
27925SOL     OW88621   8.224   9.924   2.916
27925SOL    HW188622   8.293   9.888   2.860
27925SOL    HW288623   8.257   0.011   2.940
27926SOL     OW88624   7.775   9.414   2.568
27926SOL    HW188625   7.716   9.476   2.526
27926SOL    HW288626   7.818   9.463   2.638
27927SOL     OW88627   8.998   9.604   2.264
27927SOL    HW188628   9.080   9.571   2.300
27927SOL    HW288629   8.994   9.695   2.294
27928SOL     OW88630   8.946   9.542   1.992
27928SOL    HW188631   8.896   9.465   2.016
27928SOL    HW288632   8.973   9.581   2.075
27929SOL     OW88633   7.767   0.091   2.917
27929SOL    HW188634   7.838   0.136   2.871
27929SOL    HW288635   7.781   9.998   2.897
27930SOL     OW88636   7.798   9.818   2.896
27930SOL    HW188637   7.742   9.744   2.871
27930SOL    HW288638   7.879   9.805   2.845
27931SOL     OW88639   8.582   9.725   3.535
27931SOL    HW188640   8.543   9.808   3.507
27931SOL    HW288641   8.673   9.747   3.557
27932SOL     OW88642   8.599   9.517   3.352
27932SOL    HW188643   8.595   9.595   3.408
27932SOL    HW288644   8.653   9.543   3.278
27933SOL     OW88645   7.519   9.853   2.995
27933SOL    HW188646   7.532   9.775   2.940
27933SOL    HW288647   7.575   9.920   2.955
27934SOL     OW88648   7.683   9.787   3.629
27934SOL    HW188649   7.749   9.854   3.645
27934SOL    HW288650   7.651   9.805   3.541
27935SOL     OW88651   8.257   9.921   2.118
27935SOL    HW188652   8.249   9.827   2.098
27935SOL    HW288653   8.185   9.962   2.070
27936SOL     OW88654   9.065   9.898   3.039
27936SOL    HW188655   9.057   9.849   3.121
27936SOL    HW288656   9.156   9.884   3.012
27937SOL     OW88657   8.082   9.798   3.117
27937SOL    HW188658   8.074   9.709   3.083
27937SOL    HW288659   8.128   9.846   3.048
27938SOL     OW88660   9.227   9.483   2.358
27938SOL    HW188661   9.275   9.465   2.278
27938SOL    HW288662   9.199   9.397   2.389
27939SOL     OW88663   9.290   9.460   2.860
27939SOL    HW188664   9.333   9.377   2.839
27939SOL    HW288665   9.209   9.458   2.809
27940SOL     OW88666   7.678   9.763   2.600
27940SOL    HW188667   7.639   9.701   2.538
27940SOL    HW288668   7.660   9.725   2.686
27941SOL     OW88669   8.516   9.530   2.825
27941SOL    HW188670   8.482   9.443   2.803
27941SOL    HW288671   8.500   9.538   2.920
27942SOL     OW88672   9.130   9.736   3.265
27942SOL    HW188673   9.207   9.793   3.264
27942SOL    HW288674   9.158   9.658   3.217
27943SOL     OW88675   8.144   9.549   3.347
27943SOL    HW188676   8.223   9.503   3.320
27943SOL    HW288677   8.170   9.641   3.352
27944SOL     OW88678   8.053   9.747   3.607
27944SOL    HW188679   8.001   9.824   3.628
27944SOL    HW288680   8.100   9.771   3.527
27945SOL     OW88681   8.648   9.657   2.350
27945SOL    HW188682   8.705   9.581   2.339
27945SOL    HW288683   8.681   9.700   2.429
27946SOL     OW88684   9.274   9.771   3.520
27946SOL    HW188685   9.197   9.742   3.471
27946SOL    HW288686   9.250   9.758   3.612
27947SOL     OW88687   8.568   0.191   2.017
27947SOL    HW188688   8.567   0.238   1.934
27947SOL    HW288689   8.655   0.152   2.021
27948SOL     OW88690   9.231   9.530   3.121
27948SOL    HW188691   9.286   9.478   3.179
27948SOL    HW288692   9.258   9.504   3.033
27949SOL     OW88693   7.933   9.739   2.480
27949SOL    HW188694   7.954   9.820   2.434
27949SOL    HW288695   7.846   9.755   2.517
27950SOL     OW88696   7.813   9.824   3.174
27950SOL    HW188697   7.907   9.838   3.168
27950SOL    HW288698   7.784   9.824   3.083
27951SOL     OW88699   8.941   9.564   3.001
27951SOL    HW188700   9.017   9.540   3.055
27951SOL    HW288701   8.873   9.584   3.065
27952SOL     OW88702   8.440   9.321   3.031
27952SOL    HW188703   8.399   9.313   2.945
27952SOL    HW288704   8.527   9.283   3.020
27953SOL     OW88705   8.812   9.311   2.063
27953SOL    HW188706   8.857   9.242   2.015
27953SOL    HW288707   8.722   9.280   2.070
27954SOL     OW88708   8.732   9.800   2.564
27954SOL    HW188709   8.782   9.882   2.566
27954SOL    HW288710   8.744   9.762   2.651
27955SOL     OW88711   9.036   9.484   2.753
27955SOL    HW188712   9.000   9.522   2.833
27955SOL    HW288713   9.034   9.555   2.689
27956SOL     OW88714   7.621   9.642   4.752
27956SOL    HW188715   7.664   9.588   4.819
27956SOL    HW288716   7.554   9.586   4.715
27957SOL     OW88717   7.350   9.641   4.312
27957SOL    HW188718   7.303   9.673   4.389
27957SOL    HW288719   7.443   9.658   4.331
27958SOL     OW88720   7.883   9.675   5.210
27958SOL    HW188721   7.956   9.613   5.212
27958SOL    HW288722   7.903   9.733   5.136
27959SOL     OW88723   9.070   9.763   4.480
27959SOL    HW188724   9.058   9.797   4.392
27959SOL    HW288725   9.086   9.841   4.534
27960SOL     OW88726   9.145   9.442   5.220
27960SOL    HW188727   9.189   9.477   5.143
27960SOL    HW288728   9.100   9.363   5.188
27961SOL     OW88729   7.586   9.977   4.289
27961SOL    HW188730   7.568   9.887   4.316
27961SOL    HW288731   7.680   9.987   4.300
27962SOL     OW88732   8.179   9.382   4.233
27962SOL    HW188733   8.239   9.451   4.203
27962SOL    HW288734   8.143   9.415   4.315
27963SOL     OW88735   7.802   9.555   5.584
27963SOL    HW188736   7.855   9.632   5.605
27963SOL    HW288737   7.714   9.590   5.571
27964SOL     OW88738   8.697   9.715   4.689
27964SOL    HW188739   8.618   9.662   4.694
27964SOL    HW288740   8.765   9.660   4.727
27965SOL     OW88741   8.286   9.817   5.151
27965SOL    HW188742   8.260   9.808   5.243
27965SOL    HW288743   8.203   9.813   5.103
27966SOL     OW88744   8.474   9.755   4.956
27966SOL    HW188745   8.405   9.766   5.021
27966SOL    HW288746   8.434   9.701   4.888
27967SOL     OW88747   8.535   0.014   4.054
27967SOL    HW188748   8.619   0.060   4.062
27967SOL    HW288749   8.504   0.005   4.144
27968SOL     OW88750   8.394   9.621   3.904
27968SOL    HW188751   8.477   9.667   3.916
27968SOL    HW288752   8.403   9.575   3.821
27969SOL     OW88753   9.131   9.902   5.539
27969SOL    HW188754   9.193   9.955   5.489
27969SOL    HW288755   9.129   9.818   5.493
27970SOL     OW88756   8.852   0.039   4.475
27970SOL    HW188757   8.906   0.093   4.532
27970SOL    HW288758   8.881   0.061   4.386
27971SOL     OW88759   7.665   9.511   5.255
27971SOL    HW188760   7.606   9.554   5.317
27971SOL    HW288761   7.740   9.570   5.249
27972SOL     OW88762   8.863   9.337   4.082
27972SOL    HW188763   8.864   9.410   4.020
27972SOL    HW288764   8.929   9.361   4.147
27973SOL     OW88765   8.040   9.395   3.876
27973SOL    HW188766   8.060   9.301   3.874
27973SOL    HW288767   8.085   9.430   3.799
27974SOL     OW88768   8.177   9.529   5.468
27974SOL    HW188769   8.265   9.501   5.440
27974SOL    HW288770   8.184   9.624   5.477
27975SOL     OW88771   8.307   9.736   4.651
27975SOL    HW188772   8.305   9.746   4.556
27975SOL    HW288773   8.364   9.660   4.667
27976SOL     OW88774   7.759   9.385   3.830
27976SOL    HW188775   7.777   9.446   3.759
27976SOL    HW288776   7.842   9.376   3.877
27977SOL     OW88777   8.377   9.575   4.179
27977SOL    HW188778   8.381   9.580   4.084
27977SOL    HW288779   8.465   9.601   4.208
27978SOL     OW88780   8.525   9.919   5.271
27978SOL    HW188781   8.449   9.894   5.219
27978SOL    HW288782   8.549   0.005   5.239
27979SOL     OW88783   7.596   9.868   5.138
27979SOL    HW188784   7.676   9.884   5.089
27979SOL    HW288785   7.618   9.887   5.229
27980SOL     OW88786   7.929   9.574   4.866
27980SOL    HW188787   7.934   9.523   4.786
27980SOL    HW288788   7.852   9.540   4.912
27981SOL     OW88789   8.299   9.766   4.379
27981SOL    HW188790   8.308   9.848   4.332
27981SOL    HW288791   8.316   9.698   4.313
27982SOL     OW88792   8.467   9.396   4.458
27982SOL    HW188793   8.418   9.451   4.397
27982SOL    HW288794   8.402   9.335   4.493
27983SOL     OW88795   8.824   9.921   4.861
27983SOL    HW188796   8.800   9.876   4.780
27983SOL    HW288797   8.919   9.910   4.867
27984SOL     OW88798   7.994   9.639   4.008
27984SOL    HW188799   8.016   9.555   3.967
27984SOL    HW288800   8.054   9.702   3.968
27985SOL     OW88801   8.334   9.442   5.069
27985SOL    HW188802   8.392   9.391   5.013
27985SOL    HW288803   8.371   9.434   5.157
27986SOL     OW88804   8.735   9.724   5.043
27986SOL    HW188805   8.782   9.794   4.997
27986SOL    HW288806   8.646   9.728   5.007
27987SOL     OW88807   7.994   9.823   4.530
27987SOL    HW188808   7.964   9.738   4.497
27987SOL    HW288809   8.089   9.815   4.537
27988SOL     OW88810   9.077   9.862   4.217
27988SOL    HW188811   9.094   9.951   4.185
27988SOL    HW288812   9.152   9.811   4.187
27989SOL     OW88813   7.941   9.384   5.419
27989SOL    HW188814   8.019   9.438   5.408
27989SOL    HW288815   7.882   9.437   5.472
27990SOL     OW88816   8.616   9.763   3.961
27990SOL    HW188817   8.691   9.739   4.016
27990SOL    HW288818   8.597   9.854   3.985
27991SOL     OW88819   7.679   9.488   4.980
27991SOL    HW188820   7.683   9.490   5.076
27991SOL    HW288821   7.686   9.395   4.958
27992SOL     OW88822   8.214   9.940   4.802
27992SOL    HW188823   8.245   9.864   4.752
27992SOL    HW288824   8.247   0.016   4.754
27993SOL     OW88825   8.880   9.670   4.174
27993SOL    HW188826   8.933   9.595   4.202
27993SOL    HW288827   8.938   9.745   4.186
27994SOL     OW88828   8.973   9.533   3.907
27994SOL    HW188829   9.064   9.522   3.878
27994SOL    HW288830   8.972   9.620   3.948
27995SOL     OW88831   7.713   0.106   4.616
27995SOL    HW188832   7.787   0.158   4.646
27995SOL    HW288833   7.728   0.019   4.653
27996SOL     OW88834   7.787   9.861   4.712
27996SOL    HW188835   7.738   9.779   4.714
27996SOL    HW288836   7.864   9.842   4.659
27997SOL     OW88837   7.472   9.838   4.882
27997SOL    HW188838   7.524   9.778   4.829
27997SOL    HW288839   7.526   9.855   4.959
27998SOL     OW88840   7.741   9.827   5.397
27998SOL    HW188841   7.798   9.774   5.341
27998SOL    HW288842   7.792   9.906   5.416
27999SOL     OW88843   8.219   9.823   3.970
27999SOL    HW188844   8.279   9.753   3.944
27999SOL    HW288845   8.212   9.814   4.065
28000SOL     OW88846   9.095   9.882   4.910
28000SOL    HW188847   9.109   9.846   4.998
28000SOL    HW288848   9.177   9.864   4.864
28001SOL     OW88849   8.058   9.796   4.981
28001SOL    HW188850   8.031   9.716   4.936
28001SOL    HW288851   8.110   9.843   4.916
28002SOL     OW88852   9.044   9.458   4.247
28002SOL    HW188853   9.129   9.471   4.207
28002SOL    HW288854   9.060   9.391   4.314
28003SOL     OW88855   9.295   9.462   4.720
28003SOL    HW188856   9.324   9.377   4.688
28003SOL    HW288857   9.218   9.483   4.666
28004SOL     OW88858   7.610   9.701   4.387
28004SOL    HW188859   7.672   9.694   4.315
28004SOL    HW288860   7.659   9.673   4.464
28005SOL     OW88861   8.488   9.532   4.703
28005SOL    HW188862   8.497   9.490   4.617
28005SOL    HW288863   8.485   9.459   4.765
28006SOL     OW88864   9.218   9.763   5.131
28006SOL    HW188865   9.292   9.823   5.134
28006SOL    HW288866   9.249   9.691   5.076
28007SOL     OW88867   8.107   9.515   5.198
28007SOL    HW188868   8.176   9.510   5.132
28007SOL    HW288869   8.153   9.530   5.281
28008SOL     OW88870   7.479   9.680   3.789
28008SOL    HW188871   7.432   9.672   3.706
28008SOL    HW288872   7.563   9.718   3.765
28009SOL     OW88873   7.505   9.434   3.935
28009SOL    HW188874   7.487   9.521   3.899
28009SOL    HW288875   7.594   9.414   3.908
28010SOL     OW88876   8.249   9.802   5.427
28010SOL    HW188877   8.272   9.885   5.469
28010SOL    HW288878   8.327   9.748   5.438
28011SOL     OW88879   8.619   9.670   4.266
28011SOL    HW188880   8.710   9.662   4.237
28011SOL    HW288881   8.621   9.737   4.333
28012SOL     OW88882   9.162   9.670   5.384
28012SOL    HW188883   9.179   9.716   5.302
28012SOL    HW288884   9.146   9.579   5.357
28013SOL     OW88885   8.552   0.214   3.785
28013SOL    HW188886   8.533   0.209   3.691
28013SOL    HW288887   8.642   0.183   3.794
28014SOL     OW88888   9.283   9.525   4.991
28014SOL    HW188889   9.377   9.520   5.006
28014SOL    HW288890   9.272   9.511   4.897
28015SOL     OW88891   7.810   9.679   4.208
28015SOL    HW188892   7.872   9.672   4.136
28015SOL    HW288893   7.859   9.653   4.286
28016SOL     OW88894   7.814   9.921   4.980
28016SOL    HW188895   7.904   9.891   4.992
28016SOL    HW288896   7.797   9.906   4.887
28017SOL     OW88897   8.862   9.553   4.834
28017SOL    HW188898   8.883   9.460   4.841
28017SOL    HW288899   8.846   9.580   4.924
28018SOL     OW88900   8.475   9.289   4.844
28018SOL    HW188901   8.425   9.246   4.776
28018SOL    HW288902   8.564   9.254   4.834
28019SOL     OW88903   8.794   9.365   3.780
28019SOL    HW188904   8.846   9.445   3.793
28019SOL    HW288905   8.744   9.383   3.700
28020SOL     OW88906   8.636   9.868   4.468
28020SOL    HW188907   8.708   9.931   4.463
28020SOL    HW288908   8.657   9.812   4.542
28021SOL     OW88909   9.039   9.518   4.618
28021SOL    HW188910   8.983   9.556   4.685
28021SOL    HW288911   9.049   9.587   4.552
28022SOL     OW88912   7.633   9.597   6.584
28022SOL    HW188913   7.658   9.558   6.668
28022SOL    HW288914   7.551   9.553   6.562
28023SOL     OW88915   7.447   9.679   6.251
28023SOL    HW188916   7.368   9.677   6.305
28023SOL    HW288917   7.432   9.613   6.184
28024SOL     OW88918   9.071   9.875   5.807
28024SOL    HW188919   9.103   9.897   5.719
28024SOL    HW288920   9.067   9.780   5.808
28025SOL     OW88921   7.906   9.775   7.124
28025SOL    HW188922   7.971   9.831   7.167
28025SOL    HW288923   7.957   9.706   7.082
28026SOL     OW88924   9.064   9.747   6.319
28026SOL    HW188925   9.053   9.814   6.251
28026SOL    HW288926   9.033   9.789   6.399
28027SOL     OW88927   9.043   9.445   7.018
28027SOL    HW188928   9.115   9.502   6.992
28027SOL    HW288929   9.018   9.476   7.105
28028SOL     OW88930   7.474   9.951   6.180
28028SOL    HW188931   7.486   9.857   6.196
28028SOL    HW288932   7.561   9.988   6.195
28029SOL     OW88933   8.248   9.330   6.088
28029SOL    HW188934   8.309   9.402   6.070
28029SOL    HW288935   8.162   9.366   6.072
28030SOL     OW88936   7.780   9.567   7.354
28030SOL    HW188937   7.835   9.635   7.394
28030SOL    HW288938   7.693   9.583   7.390
28031SOL     OW88939   8.722   9.672   6.537
28031SOL    HW188940   8.635   9.633   6.539
28031SOL    HW288941   8.776   9.614   6.592
28032SOL     OW88942   8.258   9.747   7.032
28032SOL    HW188943   8.234   9.793   7.113
28032SOL    HW288944   8.190   9.772   6.970
28033SOL     OW88945   8.876   9.818   7.260
28033SOL    HW188946   8.934   9.858   7.324
28033SOL    HW288947   8.893   9.724   7.268
28034SOL     OW88948   8.465   9.700   6.846
28034SOL    HW188949   8.397   9.735   6.903
28034SOL    HW288950   8.429   9.706   6.758
28035SOL     OW88951   8.455   9.979   6.011
28035SOL    HW188952   8.467   0.073   5.993
28035SOL    HW288953   8.365   9.973   6.045
28036SOL     OW88954   8.380   9.595   5.722
28036SOL    HW188955   8.378   9.690   5.728
28036SOL    HW288956   8.418   9.576   5.637
28037SOL     OW88957   9.106   9.907   7.399
28037SOL    HW188958   9.152   9.983   7.364
28037SOL    HW288959   9.144   9.832   7.354
28038SOL     OW88960   7.939   9.495   6.506
28038SOL    HW188961   7.962   9.512   6.597
28038SOL    HW288962   7.966   9.574   6.460
28039SOL     OW88963   8.885   9.995   6.337
28039SOL    HW188964   8.908   9.958   6.422
28039SOL    HW288965   8.929   0.080   6.336
28040SOL     OW88966   7.661   9.565   7.099
28040SOL    HW188967   7.626   9.653   7.082
28040SOL    HW288968   7.717   9.576   7.176
28041SOL     OW88969   8.834   9.415   6.007
28041SOL    HW188970   8.818   9.384   5.918
28041SOL    HW288971   8.913   9.469   6.000
28042SOL     OW88972   8.959   9.543   7.278
28042SOL    HW188973   8.952   9.531   7.373
28042SOL    HW288974   8.875   9.512   7.243
28043SOL     OW88975   8.132   9.476   5.741
28043SOL    HW188976   8.222   9.506   5.755
28043SOL    HW288977   8.120   9.480   5.646
28044SOL     OW88978   8.810   9.908   7.009
28044SOL    HW188979   8.825   9.881   7.099
28044SOL    HW288980   8.863   9.987   6.998
28045SOL     OW88981   8.369   9.779   6.525
28045SOL    HW188982   8.344   9.789   6.433
28045SOL    HW288983   8.408   9.692   6.530
28046SOL     OW88984   7.985   9.388   6.062
28046SOL    HW188985   7.914   9.386   6.125
28046SOL    HW288986   7.986   9.478   6.029
28047SOL     OW88987   7.718   9.329   5.717
28047SOL    HW188988   7.764   9.403   5.677
28047SOL    HW288989   7.784   9.285   5.770
28048SOL     OW88990   8.395   9.548   6.003
28048SOL    HW188991   8.389   9.562   5.908
28048SOL    HW288992   8.483   9.577   6.026
28049SOL     OW88993   8.502   9.965   7.131
28049SOL    HW188994   8.425   9.971   7.074
28049SOL    HW288995   8.561   0.033   7.101
28050SOL     OW88996   8.392   9.868   5.718
28050SOL    HW188997   8.398   9.934   5.650
28050SOL    HW288998   8.478   9.869   5.760
28051SOL     OW88999   7.559   9.827   7.015
28051SOL    HW189000   7.637   9.854   6.966
28051SOL    HW289001   7.574   9.860   7.103
28052SOL     OW89002   7.957   9.551   6.775
28052SOL    HW189003   8.001   9.493   6.837
28052SOL    HW289004   7.864   9.541   6.795
28053SOL     OW89005   8.262   9.790   6.258
28053SOL    HW189006   8.250   9.877   6.220
28053SOL    HW289007   8.298   9.737   6.188
28054SOL     OW89008   8.497   9.304   6.392
28054SOL    HW189009   8.555   9.308   6.316
28054SOL    HW289010   8.544   9.249   6.455
28055SOL     OW89011   8.953   9.847   6.556
28055SOL    HW189012   8.874   9.798   6.580
28055SOL    HW289013   9.001   9.856   6.639
28056SOL     OW89014   8.016   9.634   5.938
28056SOL    HW189015   8.050   9.579   5.867
28056SOL    HW289016   8.062   9.717   5.930
28057SOL     OW89017   8.735   9.674   6.894
28057SOL    HW189018   8.763   9.760   6.927
28057SOL    HW289019   8.643   9.687   6.870
28058SOL     OW89020   8.021   9.758   6.438
28058SOL    HW189021   8.073   9.763   6.357
28058SOL    HW289022   8.066   9.818   6.498
28059SOL     OW89023   9.081   9.935   6.082
28059SOL    HW189024   9.004   9.991   6.092
28059SOL    HW289025   9.086   9.918   5.988
28060SOL     OW89026   7.971   9.362   7.337
28060SOL    HW189027   7.946   9.318   7.256
28060SOL    HW289028   7.907   9.433   7.347
28061SOL     OW89029   8.633   9.845   5.854
28061SOL    HW189030   8.656   9.760   5.892
28061SOL    HW289031   8.581   9.888   5.922
28062SOL     OW89032   7.689   9.492   6.836
28062SOL    HW189033   7.689   9.512   6.930
28062SOL    HW289034   7.698   9.397   6.832
28063SOL     OW89035   8.154   9.921   6.617
28063SOL    HW189036   8.237   9.879   6.593
28063SOL    HW289037   8.171   0.014   6.609
28064SOL     OW89038   7.776   9.347   6.240
28064SOL    HW189039   7.751   9.438   6.257
28064SOL    HW289040   7.783   9.308   6.327
28065SOL     OW89041   9.024   9.622   5.960
28065SOL    HW189042   9.107   9.577   5.976
28065SOL    HW289043   9.024   9.695   6.023
28066SOL     OW89044   8.876   9.612   5.719
28066SOL    HW189045   8.835   9.525   5.720
28066SOL    HW289046   8.926   9.615   5.800
28067SOL     OW89047   7.697   0.044   6.537
28067SOL    HW189048   7.765   0.109   6.550
28067SOL    HW289049   7.736   9.961   6.567
28068SOL     OW89050   7.807   9.805   6.614
28068SOL    HW189051   7.750   9.730   6.599
28068SOL    HW289052   7.880   9.792   6.554
28069SOL     OW89053   8.539   9.709   7.227
28069SOL    HW189054   8.526   9.726   7.320
28069SOL    HW289055   8.540   9.797   7.187
28070SOL     OW89056   8.728   9.533   7.133
28070SOL    HW189057   8.678   9.603   7.176
28070SOL    HW289058   8.748   9.569   7.046
28071SOL     OW89059   7.442   9.826   6.752
28071SOL    HW189060   7.507   9.826   6.682
28071SOL    HW289061   7.494   9.827   6.833
28072SOL     OW89062   7.686   9.883   7.254
28072SOL    HW189063   7.760   9.839   7.212
28072SOL    HW289064   7.722   9.964   7.290
28073SOL     OW89065   8.159   9.861   5.871
28073SOL    HW189066   8.243   9.856   5.826
28073SOL    HW289067   8.126   9.949   5.852
28074SOL     OW89068   9.115   9.867   6.786
28074SOL    HW189069   9.101   9.810   6.862
28074SOL    HW289070   9.203   9.845   6.756
28075SOL     OW89071   8.062   9.795   6.846
28075SOL    HW189072   8.030   9.713   6.809
28075SOL    HW289073   8.089   9.847   6.770
28076SOL     OW89074   9.255   9.492   6.025
28076SOL    HW189075   9.320   9.493   5.954
28076SOL    HW289076   9.244   9.400   6.046
28077SOL     OW89077   9.285   9.477   6.543
28077SOL    HW189078   9.323   9.391   6.522
28077SOL    HW289079   9.201   9.478   6.497
28078SOL     OW89080   7.705   9.602   6.307
28078SOL    HW189081   7.619   9.639   6.286
28078SOL    HW289082   7.708   9.604   6.403
28079SOL     OW89083   8.480   9.529   6.557
28079SOL    HW189084   8.475   9.464   6.488
28079SOL    HW289085   8.477   9.478   6.638
28080SOL     OW89086   9.254   9.679   7.003
28080SOL    HW189087   9.307   9.758   6.992
28080SOL    HW289088   9.269   9.628   6.923
28081SOL     OW89089   7.559   9.673   5.537
28081SOL    HW189090   7.469   9.698   5.515
28081SOL    HW289091   7.613   9.744   5.501
28082SOL     OW89092   7.501   9.453   5.832
28082SOL    HW189093   7.492   9.539   5.790
28082SOL    HW289094   7.582   9.418   5.796
28083SOL     OW89095   8.146   9.881   7.258
28083SOL    HW189096   8.080   9.948   7.278
28083SOL    HW289097   8.212   9.891   7.326
28084SOL     OW89098   8.656   9.631   6.042
28084SOL    HW189099   8.719   9.560   6.035
28084SOL    HW289100   8.684   9.680   6.120
28085SOL     OW89101   9.196   9.680   7.274
28085SOL    HW189102   9.219   9.683   7.181
28085SOL    HW289103   9.119   9.624   7.278
28086SOL     OW89104   8.555   0.232   5.633
28086SOL    HW189105   8.526   0.323   5.625
28086SOL    HW289106   8.635   0.238   5.686
28087SOL     OW89107   9.270   9.479   6.817
28087SOL    HW189108   9.277   9.384   6.828
28087SOL    HW289109   9.274   9.492   6.722
28088SOL     OW89110   7.756   9.683   6.034
28088SOL    HW189111   7.846   9.676   6.002
28088SOL    HW289112   7.763   9.669   6.128
28089SOL     OW89113   7.781   9.900   6.875
28089SOL    HW189114   7.857   9.875   6.927
28089SOL    HW289115   7.802   9.871   6.786
28090SOL     OW89116   8.894   9.543   6.713
28090SOL    HW189117   8.940   9.473   6.759
28090SOL    HW289118   8.844   9.588   6.781
28091SOL     OW89119   8.473   9.350   6.767
28091SOL    HW189120   8.403   9.321   6.826
28091SOL    HW289121   8.526   9.272   6.752
28092SOL     OW89122   8.764   9.356   5.740
28092SOL    HW189123   8.767   9.322   5.651
28092SOL    HW289124   8.689   9.312   5.780
28093SOL     OW89125   8.735   9.768   6.269
28093SOL    HW189126   8.780   9.852   6.274
28093SOL    HW289127   8.733   9.736   6.359
28094SOL     OW89128   9.017   9.500   6.461
28094SOL    HW189129   8.979   9.537   6.540
28094SOL    HW289130   9.024   9.575   6.401
28095SOL     OW89131   7.691   9.585   8.445
28095SOL    HW189132   7.709   9.572   8.538
28095SOL    HW289133   7.599   9.562   8.434
28096SOL     OW89134   7.384   9.699   8.070
28096SOL    HW189135   7.462   9.728   8.116
28096SOL    HW289136   7.313   9.710   8.133
28097SOL     OW89137   9.041   9.899   7.667
28097SOL    HW189138   9.071   9.902   7.576
28097SOL    HW289139   9.047   9.806   7.691
28098SOL     OW89140   7.895   9.724   8.973
28098SOL    HW189141   7.983   9.763   8.969
28098SOL    HW289142   7.911   9.630   8.972
28099SOL     OW89143   9.048   9.711   8.205
28099SOL    HW189144   9.023   9.750   8.121
28099SOL    HW289145   9.013   9.772   8.271
28100SOL     OW89146   9.011   9.432   8.877
28100SOL    HW189147   9.088   9.469   8.833
28100SOL    HW289148   9.004   9.481   8.958
28101SOL     OW89149   8.270   9.333   7.961
28101SOL    HW189150   8.311   9.413   7.928
28101SOL    HW289151   8.176   9.351   7.959
28102SOL     OW89152   7.762   9.540   9.202
28102SOL    HW189153   7.799   9.629   9.204
28102SOL    HW289154   7.685   9.545   9.259
28103SOL     OW89155   8.732   9.680   8.395
28103SOL    HW189156   8.643   9.644   8.395
28103SOL    HW289157   8.782   9.619   8.449
28104SOL     OW89158   8.312   9.830   8.890
28104SOL    HW189159   8.272   9.837   8.977
28104SOL    HW289160   8.238   9.824   8.830
28105SOL     OW89161   8.858   9.793   9.116
28105SOL    HW189162   8.920   9.842   9.170
28105SOL    HW289163   8.885   9.701   9.125
28106SOL     OW89164   8.479   9.772   8.678
28106SOL    HW189165   8.426   9.787   8.756
28106SOL    HW289166   8.423   9.718   8.621
28107SOL     OW89167   8.513   9.985   7.904
28107SOL    HW189168   8.562   0.007   7.983
28107SOL    HW289169   8.428   0.026   7.916
28108SOL     OW89170   8.339   9.616   7.626
28108SOL    HW189171   8.386   9.671   7.564
28108SOL    HW289172   8.341   9.529   7.586
28109SOL     OW89173   9.094   9.907   9.228
28109SOL    HW189174   9.162   9.971   9.207
28109SOL    HW289175   9.134   9.822   9.207
28110SOL     OW89176   7.984   9.490   8.383
28110SOL    HW189177   7.995   9.518   8.474
28110SOL    HW289178   7.964   9.571   8.335
28111SOL     OW89179   8.902   0.012   8.164
28111SOL    HW189180   8.911   9.972   8.251
28111SOL    HW289181   8.935   0.101   8.174
28112SOL     OW89182   7.602   9.543   8.958
28112SOL    HW189183   7.534   9.610   8.952
28112SOL    HW289184   7.652   9.567   9.036
28113SOL     OW89185   8.836   9.409   7.907
28113SOL    HW189186   8.831   9.380   7.815
28113SOL    HW289187   8.929   9.401   7.929
28114SOL     OW89188   8.950   9.531   9.154
28114SOL    HW189189   8.963   9.547   9.247
28114SOL    HW289190   8.878   9.467   9.150
28115SOL     OW89191   8.091   9.389   7.589
28115SOL    HW189192   8.185   9.384   7.572
28115SOL    HW289193   8.050   9.380   7.503
28116SOL     OW89194   8.215   9.509   9.168
28116SOL    HW189195   8.301   9.468   9.170
28116SOL    HW289196   8.217   9.575   9.238
28117SOL     OW89197   8.886   9.897   8.860
28117SOL    HW189198   8.868   9.864   8.948
28117SOL    HW289199   8.905   9.990   8.874
28118SOL     OW89200   8.346   9.785   8.325
28118SOL    HW189201   8.324   9.768   8.233
28118SOL    HW289202   8.398   9.708   8.351
28119SOL     OW89203   7.995   9.369   7.941
28119SOL    HW189204   7.924   9.364   8.006
28119SOL    HW289205   7.969   9.441   7.883
28120SOL     OW89206   7.715   9.360   7.661
28120SOL    HW189207   7.771   9.435   7.680
28120SOL    HW289208   7.766   9.285   7.693
28121SOL     OW89209   8.393   9.572   7.890
28121SOL    HW189210   8.373   9.584   7.798
28121SOL    HW289211   8.487   9.588   7.897
28122SOL     OW89212   8.534   9.964   8.994
28122SOL    HW189213   8.464   9.917   8.950
28122SOL    HW289214   8.547   0.043   8.941
28123SOL     OW89215   8.474   9.809   7.478
28123SOL    HW189216   8.437   9.897   7.464
28123SOL    HW289217   8.535   9.820   7.551
28124SOL     OW89218   7.512   9.928   8.927
28124SOL    HW189219   7.579   9.895   8.867
28124SOL    HW289220   7.527   0.023   8.929
28125SOL     OW89221   8.003   9.551   8.658
28125SOL    HW189222   8.047   9.516   8.735
28125SOL    HW289223   7.909   9.540   8.677
28126SOL     OW89224   8.291   9.771   8.062
28126SOL    HW189225   8.272   9.846   8.006
28126SOL    HW289226   8.322   9.703   8.002
28127SOL     OW89227   8.467   9.367   8.176
28127SOL    HW189228   8.408   9.377   8.101
28127SOL    HW289229   8.427   9.297   8.228
28128SOL     OW89230   8.926   9.874   8.394
28128SOL    HW189231   8.852   9.816   8.414
28128SOL    HW289232   8.957   9.903   8.479
28129SOL     OW89233   7.901   9.541   7.740
28129SOL    HW189234   7.984   9.531   7.694
28129SOL    HW289235   7.913   9.620   7.793
28130SOL     OW89236   8.391   9.380   8.813
28130SOL    HW189237   8.418   9.362   8.722
28130SOL    HW289238   8.464   9.430   8.850
28131SOL     OW89239   8.734   9.694   8.747
28131SOL    HW189240   8.781   9.770   8.783
28131SOL    HW289241   8.650   9.730   8.717
28132SOL     OW89242   7.932   9.769   8.277
28132SOL    HW189243   7.868   9.821   8.230
28132SOL    HW289244   8.013   9.819   8.271
28133SOL     OW89245   9.013   9.859   7.965
28133SOL    HW189246   8.970   9.923   8.022
28133SOL    HW289247   9.051   9.911   7.895
28134SOL     OW89248   8.470   9.412   9.183
28134SOL    HW189249   8.521   9.494   9.183
28134SOL    HW289250   8.531   9.346   9.149
28135SOL     OW89251   7.934   9.324   9.184
28135SOL    HW189252   7.885   9.263   9.129
28135SOL    HW289253   7.877   9.401   9.192
28136SOL     OW89254   8.629   9.842   7.705
28136SOL    HW189255   8.652   9.761   7.752
28136SOL    HW289256   8.583   9.895   7.771
28137SOL     OW89257   7.737   9.505   8.714
28137SOL    HW189258   7.688   9.529   8.792
28137SOL    HW289259   7.724   9.410   8.707
28138SOL     OW89260   8.199   9.952   8.484
28138SOL    HW189261   8.242   9.896   8.419
28138SOL    HW289262   8.162   0.024   8.432
28139SOL     OW89263   7.757   9.343   8.091
28139SOL    HW189264   7.735   9.436   8.100
28139SOL    HW289265   7.767   9.312   8.181
28140SOL     OW89266   9.041   9.648   7.789
28140SOL    HW189267   9.104   9.591   7.834
28140SOL    HW289268   9.011   9.708   7.857
28141SOL     OW89269   8.938   9.540   7.551
28141SOL    HW189270   8.888   9.465   7.583
28141SOL    HW289271   8.974   9.581   7.630
28142SOL     OW89272   7.817   0.077   8.368
28142SOL    HW189273   7.784   0.041   8.285
28142SOL    HW289274   7.742   0.123   8.405
28143SOL     OW89275   7.803   9.848   8.528
28143SOL    HW189276   7.805   9.777   8.464
28143SOL    HW289277   7.818   9.928   8.477
28144SOL     OW89278   8.588   9.674   9.152
28144SOL    HW189279   8.523   9.727   9.199
28144SOL    HW289280   8.662   9.733   9.140
28145SOL     OW89281   8.614   9.513   8.921
28145SOL    HW189282   8.595   9.572   8.994
28145SOL    HW289283   8.663   9.567   8.858
28146SOL     OW89284   7.474   9.863   8.598
28146SOL    HW189285   7.515   9.890   8.516
28146SOL    HW289286   7.547   9.841   8.656
28147SOL     OW89287   7.668   9.805   9.125
28147SOL    HW189288   7.744   9.797   9.067
28147SOL    HW289289   7.606   9.859   9.077
28148SOL     OW89290   8.237   9.904   7.680
28148SOL    HW189291   8.264   9.812   7.680
28148SOL    HW289292   8.249   9.932   7.771
28149SOL     OW89293   9.042   9.948   8.633
28149SOL    HW189294   9.002   9.908   8.711
28149SOL    HW289295   9.114   9.890   8.610
28150SOL     OW89296   8.117   9.803   8.704
28150SOL    HW189297   8.070   9.725   8.673
28150SOL    HW289298   8.132   9.854   8.625
28151SOL     OW89299   9.215   9.489   7.937
28151SOL    HW189300   9.270   9.463   7.863
28151SOL    HW289301   9.180   9.407   7.971
28152SOL     OW89302   9.311   9.442   8.419
28152SOL    HW189303   9.369   9.369   8.399
28152SOL    HW289304   9.234   9.427   8.363
28153SOL     OW89305   7.714   9.600   8.166
28153SOL    HW189306   7.675   9.686   8.152
28153SOL    HW289307   7.727   9.594   8.261
28154SOL     OW89308   8.487   9.548   8.391
28154SOL    HW189309   8.488   9.500   8.307
28154SOL    HW289310   8.481   9.479   8.457
28155SOL     OW89311   9.251   9.671   8.873
28155SOL    HW189312   9.280   9.757   8.843
28155SOL    HW289313   9.242   9.620   8.792
28156SOL     OW89314   8.134   9.464   8.903
28156SOL    HW189315   8.222   9.444   8.868
28156SOL    HW289316   8.150   9.486   8.995
28157SOL     OW89317   7.530   9.666   7.421
28157SOL    HW189318   7.455   9.679   7.362
28157SOL    HW289319   7.566   9.754   7.433
28158SOL     OW89320   7.441   9.446   7.677
28158SOL    HW189321   7.427   9.469   7.769
28158SOL    HW289322   7.536   9.442   7.666
28159SOL     OW89323   8.189   9.865   9.136
28159SOL    HW189324   8.138   9.934   9.178
28159SOL    HW289325   8.263   9.850   9.195
28160SOL     OW89326   8.664   9.636   7.900
28160SOL    HW189327   8.725   9.563   7.903
28160SOL    HW289328   8.687   9.689   7.977
28161SOL     OW89329   9.197   9.666   9.142
28161SOL    HW189330   9.221   9.668   9.050
28161SOL    HW289331   9.123   9.605   9.146
28162SOL     OW89332   8.602   0.199   7.524
28162SOL    HW189333   8.629   0.290   7.512
28162SOL    HW289334   8.675   0.157   7.570
28163SOL     OW89335   9.217   9.471   8.679
28163SOL    HW189336   9.236   9.378   8.692
28163SOL    HW289337   9.246   9.489   8.590
28164SOL     OW89338   7.904   9.728   7.942
28164SOL    HW189339   7.862   9.701   8.024
28164SOL    HW289340   7.912   9.823   7.950
28165SOL     OW89341   7.706   9.816   8.777
28165SOL    HW189342   7.777   9.782   8.833
28165SOL    HW289343   7.748   9.830   8.692
28166SOL     OW89344   8.895   9.546   8.582
28166SOL    HW189345   8.949   9.491   8.639
28166SOL    HW289346   8.840   9.595   8.643
28167SOL     OW89347   8.480   9.312   8.547
28167SOL    HW189348   8.424   9.253   8.496
28167SOL    HW289349   8.568   9.274   8.540
28168SOL     OW89350   8.810   9.314   7.648
28168SOL    HW189351   8.843   9.243   7.593
28168SOL    HW289352   8.716   9.298   7.652
28169SOL     OW89353   8.730   9.784   8.126
28169SOL    HW189354   8.777   9.867   8.131
28169SOL    HW289355   8.732   9.750   8.216
28170SOL     OW89356   9.035   9.472   8.348
28170SOL    HW189357   8.989   9.511   8.422
28170SOL    HW289358   9.040   9.543   8.284
28171SOL     OW89359   8.982   9.944   9.481
28171SOL    HW189360   9.028   9.930   9.398
28171SOL    HW289361   9.009   9.872   9.536
28172SOL     OW89362   7.486   9.963   9.928
28172SOL    HW189363   7.541   9.911   9.870
28172SOL    HW289364   7.538   0.041   9.946
28173SOL     OW89365   8.258   9.304   9.782
28173SOL    HW189366   8.318   9.378   9.787
28173SOL    HW289367   8.174   9.339   9.812
28174SOL     OW89368   8.260   9.606   9.445
28174SOL    HW189369   8.265   9.688   9.494
28174SOL    HW289370   8.342   9.561   9.464
28175SOL     OW89371   8.905   9.474   9.764
28175SOL    HW189372   8.894   9.435   9.677
28175SOL    HW289373   9.000   9.488   9.772
28176SOL     OW89374   8.024   9.473   9.417
28176SOL    HW189375   8.109   9.516   9.422
28176SOL    HW289376   8.025   9.429   9.331
28177SOL     OW89377   7.998   9.386   9.846
28177SOL    HW189378   7.907   9.388   9.877
28177SOL    HW289379   8.006   9.462   9.788
28178SOL     OW89380   7.781   9.346   9.470
28178SOL    HW189381   7.855   9.403   9.447
28178SOL    HW289382   7.819   9.279   9.526
28179SOL     OW89383   8.436   9.514   9.813
28179SOL    HW189384   8.370   9.579   9.788
28179SOL    HW289385   8.520   9.556   9.794
28180SOL     OW89386   8.404   9.856   9.312
28180SOL    HW189387   8.436   9.946   9.303
28180SOL    HW289388   8.384   9.847   9.405
28181SOL     OW89389   8.022   9.596   9.680
28181SOL    HW189390   8.018   9.573   9.587
28181SOL    HW289391   8.110   9.631   9.692
28182SOL     OW89392   9.053   9.937   9.835
28182SOL    HW189393   8.985   9.965   9.896
28182SOL    HW289394   9.104   0.015   9.818
28183SOL     OW89395   8.576   9.851   9.587
28183SOL    HW189396   8.606   9.782   9.646
28183SOL    HW289397   8.481   9.852   9.596
28184SOL     OW89398   7.737   9.408   9.936
28184SOL    HW189399   7.663   9.464   9.960
28184SOL    HW289400   7.764   9.367   0.018
28185SOL     OW89401   9.054   9.734   9.646
28185SOL    HW189402   9.102   9.661   9.685
28185SOL    HW289403   9.049   9.800   9.715
28186SOL     OW89404   8.966   9.577   9.420
28186SOL    HW189405   8.919   9.505   9.462
28186SOL    HW289406   8.991   9.635   9.492
28187SOL     OW89407   7.822   9.863   0.276
28187SOL    HW189408   7.781   9.790   0.323
28187SOL    HW289409   7.882   9.902   0.340
28188SOL     OW89410   9.184   9.519   9.763
28188SOL    HW189411   9.248   9.492   9.697
28188SOL    HW289412   9.235   9.525   9.844
28189SOL     OW89413   7.531   9.656   9.323
28189SOL    HW189414   7.447   9.654   9.277
28189SOL    HW289415   7.580   9.726   9.279
28190SOL     OW89416   7.528   9.450   9.518
28190SOL    HW189417   7.521   9.526   9.460
28190SOL    HW289418   7.619   9.422   9.509
28191SOL     OW89419   8.670   9.651   9.774
28191SOL    HW189420   8.761   9.619   9.778
28191SOL    HW289421   8.662   9.707   9.851
28192SOL     OW89422   8.596   0.286   9.440
28192SOL    HW189423   8.603   0.284   9.345
28192SOL    HW289424   8.638   0.206   9.469
28193SOL     OW89425   7.924   9.707   9.914
28193SOL    HW189426   7.948   9.676   9.827
28193SOL    HW289427   7.849   9.652   9.939
28194SOL     OW89428   8.847   9.347   9.525
28194SOL    HW189429   8.898   9.269   9.507
28194SOL    HW289430   8.758   9.315   9.540
28195SOL     OW89431   8.604   9.807   9.991
28195SOL    HW189432   8.548   9.878   9.958
28195SOL    HW289433   8.609   9.822   0.085
28196SOL     OW89434   9.501   0.584   0.127
28196SOL    HW189435   9.415   0.585   0.168
28196SOL    HW289436   9.486   0.615   0.038
28197SOL     OW89437   9.530   0.270   0.991
28197SOL    HW189438   9.558   0.242   1.079
28197SOL    HW289439   9.440   0.240   0.984
28198SOL     OW89440   9.311   0.437   0.636
28198SOL    HW189441   9.232   0.452   0.688
28198SOL    HW289442   9.286   0.368   0.575
28199SOL     OW89443   9.847   1.196   1.108
28199SOL    HW189444   9.780   1.261   1.085
28199SOL    HW289445   9.884   1.228   1.190
28200SOL     OW89446   0.014   0.799   1.762
28200SOL    HW189447   0.087   0.829   1.815
28200SOL    HW289448   0.047   0.720   1.719
28201SOL     OW89449   9.668   1.402   1.045
28201SOL    HW189450   9.585   1.370   1.011
28201SOL    HW289451   9.703   1.457   0.975
28202SOL     OW89452   9.583   1.071   0.905
28202SOL    HW189453   9.606   0.979   0.917
28202SOL    HW289454   9.536   1.095   0.985
28203SOL     OW89455   9.443   0.674   0.561
28203SOL    HW189456   9.401   0.591   0.584
28203SOL    HW289457   9.435   0.728   0.639
28204SOL     OW89458   9.465   0.792   1.546
28204SOL    HW189459   9.548   0.747   1.561
28204SOL    HW289460   9.457   0.853   1.619
28205SOL     OW89461   9.925   1.392   0.747
28205SOL    HW189462   9.850   1.332   0.744
28205SOL    HW289463   9.991   1.350   0.690
28206SOL     OW89464   9.511   0.957   1.321
28206SOL    HW189465   9.600   0.930   1.296
28206SOL    HW289466   9.477   0.884   1.371
28207SOL     OW89467   9.888   0.670   0.265
28207SOL    HW189468   9.955   0.716   0.215
28207SOL    HW289469   9.857   0.735   0.329
28208SOL     OW89470   9.418   0.835   0.779
28208SOL    HW189471   9.496   0.818   0.832
28208SOL    HW289472   9.373   0.906   0.825
28209SOL     OW89473   9.379   1.854   1.580
28209SOL    HW189474   9.400   1.849   1.674
28209SOL    HW289475   9.304   1.797   1.569
28210SOL     OW89476   0.102   0.367   0.147
28210SOL    HW189477   0.129   0.434   0.084
28210SOL    HW289478   0.181   0.346   0.196
28211SOL     OW89479   9.884   0.237   0.981
28211SOL    HW189480   9.899   0.331   0.971
28211SOL    HW289481   9.868   0.206   0.892
28212SOL     OW89482   9.635   1.803   0.921
28212SOL    HW189483   9.702   1.736   0.905
28212SOL    HW289484   9.676   1.885   0.894
28213SOL     OW89485   9.608   1.003   0.251
28213SOL    HW189486   9.629   1.047   0.169
28213SOL    HW289487   9.625   0.911   0.234
28214SOL     OW89488   9.818   1.243   1.743
28214SOL    HW189489   9.755   1.275   1.678
28214SOL    HW289490   9.795   1.150   1.754
28215SOL     OW89491   9.546   0.302   1.460
28215SOL    HW189492   9.493   0.364   1.510
28215SOL    HW289493   9.587   0.246   1.526
28216SOL     OW89494   9.606   1.796   1.203
28216SOL    HW189495   9.626   1.707   1.232
28216SOL    HW289496   9.615   1.793   1.108
28217SOL     OW89497   9.721   0.692   0.510
28217SOL    HW189498   9.740   0.599   0.516
28217SOL    HW289499   9.626   0.698   0.519
28218SOL     OW89500   0.164   1.458   0.870
28218SOL    HW189501   0.215   1.412   0.804
28218SOL    HW289502   0.073   1.434   0.852
28219SOL     OW89503   9.797   0.022   0.458
28219SOL    HW189504   9.728   0.031   0.523
28219SOL    HW289505   9.805   0.109   0.419
28220SOL     OW89506   9.632   0.080   0.164
28220SOL    HW189507   9.682   0.137   0.223
28220SOL    HW289508   9.625   9.997   0.212
28221SOL     OW89509   0.250   0.289   0.377
28221SOL    HW189510   0.200   0.352   0.428
28221SOL    HW289511   0.341   0.301   0.407
28222SOL     OW89512   9.720   1.220   0.720
28222SOL    HW189513   9.680   1.167   0.789
28222SOL    HW289514   9.680   1.187   0.639
28223SOL     OW89515   9.397   0.583   1.370
28223SOL    HW189516   9.491   0.570   1.358
28223SOL    HW289517   9.390   0.647   1.441
28224SOL     OW89518   9.810   0.253   0.308
28224SOL    HW189519   9.901   0.233   0.284
28224SOL    HW289520   9.786   0.326   0.250
28225SOL     OW89521   9.750   0.815   1.293
28225SOL    HW189522   9.812   0.818   1.365
28225SOL    HW289523   9.717   0.725   1.293
28226SOL     OW89524   9.396   1.565   1.372
28226SOL    HW189525   9.357   1.630   1.313
28226SOL    HW289526   9.489   1.566   1.351
28227SOL     OW89527   9.594   1.162   0.478
28227SOL    HW189528   9.607   1.237   0.420
28227SOL    HW289529   9.605   1.086   0.422
28228SOL     OW89530   9.895   0.509   0.910
28228SOL    HW189531   9.898   0.577   0.844
28228SOL    HW289532   9.945   0.545   0.984
28229SOL     OW89533   9.656   1.535   1.286
28229SOL    HW189534   9.664   1.479   1.209
28229SOL    HW289535   9.736   1.518   1.336
28230SOL     OW89536   9.697   0.648   1.617
28230SOL    HW189537   9.774   0.689   1.577
28230SOL    HW289538   9.728   0.564   1.650
28231SOL     OW89539   9.851   0.925   1.060
28231SOL    HW189540   9.848   1.020   1.074
28231SOL    HW289541   9.830   0.888   1.146
28232SOL     OW89542   9.615   0.168   1.233
28232SOL    HW189543   9.588   0.221   1.308
28232SOL    HW289544   9.614   0.078   1.266
28233SOL     OW89545   9.378   1.302   1.264
28233SOL    HW189546   9.384   1.236   1.333
28233SOL    HW289547   9.371   1.385   1.312
28234SOL     OW89548   9.574   0.067   0.620
28234SOL    HW189549   9.560   0.162   0.631
28234SOL    HW289550   9.607   0.039   0.705
28235SOL     OW89551   9.721   0.989   1.762
28235SOL    HW189552   9.626   0.979   1.764
28235SOL    HW289553   9.755   0.900   1.770
28236SOL     OW89554   9.636   0.798   0.945
28236SOL    HW189555   9.719   0.832   0.979
28236SOL    HW289556   9.632   0.708   0.978
28237SOL     OW89557   9.639   0.522   1.019
28237SOL    HW189558   9.600   0.436   1.004
28237SOL    HW289559   9.726   0.516   0.979
28238SOL     OW89560   9.244   1.305   0.146
28238SOL    HW189561   9.150   1.313   0.165
28238SOL    HW289562   9.272   1.231   0.200
28239SOL     OW89563   9.361   1.755   0.930
28239SOL    HW189564   9.345   1.672   0.885
28239SOL    HW289565   9.456   1.768   0.925
28240SOL     OW89566   9.832   1.613   0.888
28240SOL    HW189567   9.913   1.656   0.914
28240SOL    HW289568   9.860   1.542   0.830
28241SOL     OW89569   9.338   0.553   1.104
28241SOL    HW189570   9.421   0.562   1.057
28241SOL    HW289571   9.360   0.568   1.196
28242SOL     OW89572   9.484   0.477   1.686
28242SOL    HW189573   9.556   0.415   1.702
28242SOL    HW289574   9.528   0.560   1.666
28243SOL     OW89575   0.035   0.475   0.391
28243SOL    HW189576   0.051   0.435   0.306
28243SOL    HW289577   9.967   0.540   0.374
28244SOL     OW89578   9.501   1.497   1.768
28244SOL    HW189579   9.480   1.535   1.853
28244SOL    HW289580   9.517   1.404   1.786
28245SOL     OW89581   9.744   0.467   0.152
28245SOL    HW189582   9.802   0.537   0.182
28245SOL    HW289583   9.656   0.506   0.153
28246SOL     OW89584   9.428   1.131   1.519
28246SOL    HW189585   9.433   1.080   1.600
28246SOL    HW289586   9.461   1.071   1.452
28247SOL     OW89587   9.400   1.312   0.989
28247SOL    HW189588   9.387   1.308   1.084
28247SOL    HW289589   9.357   1.233   0.956
28248SOL     OW89590   9.981   1.672   1.689
28248SOL    HW189591   0.021   1.682   1.775
28248SOL    HW289592   9.987   1.579   1.669
28249SOL     OW89593   9.439   1.831   1.841
28249SOL    HW189594   9.411   1.752   1.887
28249SOL    HW289595   9.507   1.869   1.897
28250SOL     OW89596   9.554   0.330   0.707
28250SOL    HW189597   9.473   0.375   0.687
28250SOL    HW289598   9.552   0.317   0.802
28251SOL     OW89599   9.645   1.313   1.533
28251SOL    HW189600   9.611   1.376   1.470
28251SOL    HW289601   9.575   1.248   1.543
28252SOL     OW89602   9.342   0.287   9.965
28252SOL    HW189603   9.335   0.250   0.053
28252SOL    HW289604   9.433   0.316   9.959
28253SOL     OW89605   9.924   0.770   1.498
28253SOL    HW189606   9.957   0.798   1.583
28253SOL    HW289607   9.990   0.710   1.464
28254SOL     OW89608   9.618   1.677   1.586
28254SOL    HW189609   9.536   1.721   1.567
28254SOL    HW289610   9.594   1.606   1.646
28255SOL     OW89611   9.917   0.694   0.711
28255SOL    HW189612   9.944   0.776   0.751
28255SOL    HW289613   9.847   0.718   0.650
28256SOL     OW89614   9.514   1.230   1.838
28256SOL    HW189615   9.467   1.148   1.822
28256SOL    HW289616   9.591   1.204   1.890
28257SOL     OW89617   9.368   1.207   0.644
28257SOL    HW189618   9.382   1.161   0.727
28257SOL    HW289619   9.444   1.183   0.591
28258SOL     OW89620   0.008   1.407   1.634
28258SOL    HW189621   9.956   1.344   1.684
28258SOL    HW289622   9.976   1.399   1.545
28259SOL     OW89623   9.764   0.416   0.543
28259SOL    HW189624   9.765   0.358   0.467
28259SOL    HW289625   9.692   0.384   0.597
28260SOL     OW89626   9.659   0.552   1.300
28260SOL    HW189627   9.681   0.471   1.347
28260SOL    HW289628   9.665   0.528   1.207
28261SOL     OW89629   9.339   1.074   0.267
28261SOL    HW189630   9.434   1.064   0.276
28261SOL    HW289631   9.303   1.007   0.325
28262SOL     OW89632   9.536   0.257   2.862
28262SOL    HW189633   9.566   0.232   2.950
28262SOL    HW289634   9.447   0.223   2.856
28263SOL     OW89635   9.301   0.428   2.502
28263SOL    HW189636   9.217   0.452   2.541
28263SOL    HW289637   9.282   0.351   2.448
28264SOL     OW89638   0.029   0.742   3.753
28264SOL    HW189639   0.110   0.692   3.751
28264SOL    HW289640   0.009   0.759   3.661
28265SOL     OW89641   9.729   0.331   3.318
28265SOL    HW189642   9.817   0.293   3.326
28265SOL    HW289643   9.704   0.351   3.409
28266SOL     OW89644   9.479   1.540   2.508
28266SOL    HW189645   9.461   1.558   2.600
28266SOL    HW289646   9.468   1.445   2.499
28267SOL     OW89647   9.445   0.657   2.409
28267SOL    HW189648   9.398   0.579   2.437
28267SOL    HW289649   9.437   0.718   2.482
28268SOL     OW89650   9.391   1.613   2.002
28268SOL    HW189651   9.358   1.525   2.022
28268SOL    HW289652   9.379   1.661   2.084
28269SOL     OW89653   9.448   0.790   3.423
28269SOL    HW189654   9.475   0.736   3.497
28269SOL    HW289655   9.415   0.871   3.462
28270SOL     OW89656   9.902   1.442   2.573
28270SOL    HW189657   9.860   1.358   2.590
28270SOL    HW289658   9.898   1.452   2.478
28271SOL     OW89659   9.848   0.829   2.135
28271SOL    HW189660   9.877   0.759   2.075
28271SOL    HW289661   9.803   0.783   2.206
28272SOL     OW89662   9.416   0.837   2.618
28272SOL    HW189663   9.482   0.830   2.687
28272SOL    HW289664   9.358   0.907   2.647
28273SOL     OW89665   9.373   1.879   3.456
28273SOL    HW189666   9.374   1.870   3.551
28273SOL    HW289667   9.306   1.816   3.427
28274SOL     OW89668   0.287   0.259   2.004
28274SOL    HW189669   0.256   0.245   1.915
28274SOL    HW289670   0.311   0.172   2.036
28275SOL     OW89671   9.925   0.239   2.785
28275SOL    HW189672   9.918   0.231   2.880
28275SOL    HW289673   9.905   0.331   2.767
28276SOL     OW89674   9.656   1.817   2.737
28276SOL    HW189675   9.692   1.732   2.762
28276SOL    HW289676   9.721   1.881   2.766
28277SOL     OW89677   9.664   1.046   2.121
28277SOL    HW189678   9.732   0.978   2.113
28277SOL    HW289679   9.595   1.018   2.060
28278SOL     OW89680   9.748   1.230   3.550
28278SOL    HW189681   9.708   1.268   3.471
28278SOL    HW289682   9.693   1.261   3.622
28279SOL     OW89683   9.756   1.733   2.214
28279SOL    HW189684   9.797   1.800   2.269
28279SOL    HW289685   9.829   1.683   2.178
28280SOL     OW89686   9.604   1.752   3.156
28280SOL    HW189687   9.620   1.754   3.251
28280SOL    HW289688   9.657   1.678   3.125
28281SOL     OW89689   9.710   0.678   2.327
28281SOL    HW189690   9.734   0.586   2.335
28281SOL    HW289691   9.616   0.680   2.344
28282SOL     OW89692   0.142   1.394   2.720
28282SOL    HW189693   0.172   1.330   2.657
28282SOL    HW289694   0.060   1.429   2.683
28283SOL     OW89695   9.788   0.007   2.261
28283SOL    HW189696   9.749   0.003   2.348
28283SOL    HW289697   9.787   0.100   2.239
28284SOL     OW89698   9.525   0.078   2.155
28284SOL    HW189699   9.564   0.160   2.126
28284SOL    HW289700   9.598   0.028   2.191
28285SOL     OW89701   0.120   0.260   2.231
28285SOL    HW189702   0.191   0.293   2.175
28285SOL    HW289703   0.163   0.199   2.291
28286SOL     OW89704   9.770   1.208   2.607
28286SOL    HW189705   9.699   1.231   2.668
28286SOL    HW289706   9.726   1.160   2.536
28287SOL     OW89707   9.447   0.581   3.249
28287SOL    HW189708   9.540   0.581   3.228
28287SOL    HW289709   9.435   0.657   3.306
28288SOL     OW89710   9.904   0.221   3.054
28288SOL    HW189711   9.952   0.213   3.137
28288SOL    HW289712   9.813   0.202   3.077
28289SOL     OW89713   9.393   1.569   3.220
28289SOL    HW189714   9.460   1.625   3.180
28289SOL    HW289715   9.404   1.484   3.178
28290SOL     OW89716   9.617   1.092   2.390
28290SOL    HW189717   9.639   1.088   2.297
28290SOL    HW289718   9.595   1.002   2.413
28291SOL     OW89719   9.874   0.513   2.780
28291SOL    HW189720   9.865   0.569   2.703
28291SOL    HW289721   9.937   0.559   2.835
28292SOL     OW89722   9.737   1.508   3.143
28292SOL    HW189723   9.711   1.456   3.067
28292SOL    HW289724   9.833   1.507   3.142
28293SOL     OW89725   9.754   0.847   3.442
28293SOL    HW189726   9.823   0.852   3.376
28293SOL    HW289727   9.711   0.763   3.425
28294SOL     OW89728   9.713   0.052   3.675
28294SOL    HW189729   9.644   9.995   3.642
28294SOL    HW289730   9.678   0.088   3.756
28295SOL     OW89731   9.895   0.866   2.866
28295SOL    HW189732   9.932   0.950   2.895
28295SOL    HW289733   9.945   0.801   2.916
28296SOL     OW89734   9.630   0.179   3.111
28296SOL    HW189735   9.649   0.233   3.188
28296SOL    HW289736   9.621   0.091   3.146
28297SOL     OW89737   9.630   0.047   2.491
28297SOL    HW189738   9.605   0.140   2.495
28297SOL    HW289739   9.668   0.029   2.577
28298SOL     OW89740   9.672   0.985   3.672
28298SOL    HW189741   9.709   1.067   3.639
28298SOL    HW289742   9.700   0.919   3.609
28299SOL     OW89743   9.615   0.801   2.826
28299SOL    HW189744   9.707   0.826   2.822
28299SOL    HW289745   9.617   0.707   2.848
28300SOL     OW89746   9.630   0.518   2.901
28300SOL    HW189747   9.593   0.431   2.885
28300SOL    HW289748   9.714   0.517   2.856
28301SOL     OW89749   9.306   1.368   2.080
28301SOL    HW189750   9.226   1.372   2.027
28301SOL    HW289751   9.316   1.276   2.102
28302SOL     OW89752   9.390   1.783   2.811
28302SOL    HW189753   9.391   1.689   2.793
28302SOL    HW289754   9.481   1.811   2.797
28303SOL     OW89755   9.755   1.568   2.786
28303SOL    HW189756   9.719   1.497   2.839
28303SOL    HW289757   9.808   1.524   2.720
28304SOL     OW89758   9.319   0.531   3.011
28304SOL    HW189759   9.381   0.532   2.939
28304SOL    HW289760   9.369   0.563   3.086
28305SOL     OW89761   9.515   0.616   3.626
28305SOL    HW189762   9.579   0.578   3.686
28305SOL    HW289763   9.430   0.584   3.656
28306SOL     OW89764   0.132   0.610   2.172
28306SOL    HW189765   0.119   0.624   2.265
28306SOL    HW289766   0.157   0.695   2.138
28307SOL     OW89767   9.517   1.555   3.602
28307SOL    HW189768   9.481   1.575   3.688
28307SOL    HW289769   9.558   1.469   3.614
28308SOL     OW89770   9.990   1.614   3.469
28308SOL    HW189771   9.945   1.696   3.488
28308SOL    HW289772   0.072   1.620   3.519
28309SOL     OW89773   9.400   1.841   3.722
28309SOL    HW189774   9.381   1.751   3.748
28309SOL    HW289775   9.461   1.873   3.788
28310SOL     OW89776   9.553   0.309   2.563
28310SOL    HW189777   9.472   0.355   2.539
28310SOL    HW289778   9.552   0.309   2.659
28311SOL     OW89779   9.618   1.365   3.352
28311SOL    HW189780   9.662   1.424   3.291
28311SOL    HW289781   9.529   1.355   3.317
28312SOL     OW89782   9.849   1.423   2.284
28312SOL    HW189783   9.893   1.356   2.233
28312SOL    HW289784   9.757   1.419   2.256
28313SOL     OW89785   9.554   1.431   2.233
28313SOL    HW189786   9.486   1.417   2.168
28313SOL    HW289787   9.552   1.352   2.287
28314SOL     OW89788   9.402   1.000   3.602
28314SOL    HW189789   9.343   0.990   3.676
28314SOL    HW289790   9.490   0.994   3.641
28315SOL     OW89791   9.965   0.200   3.353
28315SOL    HW189792   0.056   0.231   3.362
28315SOL    HW289793   9.954   0.139   3.426
28316SOL     OW89794   9.385   0.389   1.935
28316SOL    HW189795   9.398   0.401   1.841
28316SOL    HW289796   9.470   0.361   1.968
28317SOL     OW89797   9.281   0.165   2.080
28317SOL    HW189798   9.303   0.240   2.025
28317SOL    HW289799   9.366   0.123   2.098
28318SOL     OW89800   9.896   0.858   3.196
28318SOL    HW189801   9.988   0.884   3.182
28318SOL    HW289802   9.896   0.763   3.185
28319SOL     OW89803   9.618   1.753   3.432
28319SOL    HW189804   9.535   1.800   3.436
28319SOL    HW289805   9.603   1.673   3.483
28320SOL     OW89806   9.844   0.691   2.575
28320SOL    HW189807   9.910   0.760   2.570
28320SOL    HW289808   9.799   0.695   2.491
28321SOL     OW89809   9.569   1.312   3.734
28321SOL    HW189810   9.487   1.263   3.743
28321SOL    HW289811   9.594   1.334   3.824
28322SOL     OW89812   9.449   1.269   2.522
28322SOL    HW189813   9.482   1.269   2.612
28322SOL    HW289814   9.499   1.200   2.478
28323SOL     OW89815   0.006   1.319   3.503
28323SOL    HW189816   9.916   1.289   3.514
28323SOL    HW289817   9.998   1.413   3.487
28324SOL     OW89818   9.755   0.413   2.389
28324SOL    HW189819   9.753   0.358   2.310
28324SOL    HW289820   9.687   0.376   2.445
28325SOL     OW89821   9.707   0.576   3.170
28325SOL    HW189822   9.741   0.495   3.208
28325SOL    HW289823   9.698   0.556   3.077
28326SOL     OW89824   9.295   1.099   2.119
28326SOL    HW189825   9.375   1.063   2.078
28326SOL    HW289826   9.224   1.060   2.068
28327SOL     OW89827   9.454   0.597   3.927
28327SOL    HW189828   9.396   0.573   3.855
28327SOL    HW289829   9.497   0.677   3.898
28328SOL     OW89830   9.460   0.356   4.689
28328SOL    HW189831   9.517   0.280   4.704
28328SOL    HW289832   9.419   0.339   4.605
28329SOL     OW89833   9.345   0.326   4.441
28329SOL    HW189834   9.300   0.272   4.376
28329SOL    HW289835   9.432   0.341   4.403
28330SOL     OW89836   9.795   1.205   4.838
28330SOL    HW189837   9.745   1.283   4.815
28330SOL    HW289838   9.864   1.237   4.896
28331SOL     OW89839   0.144   0.673   5.568
28331SOL    HW189840   0.223   0.633   5.604
28331SOL    HW289841   0.104   0.718   5.642
28332SOL     OW89842   9.662   1.444   4.785
28332SOL    HW189843   9.579   1.437   4.737
28332SOL    HW289844   9.715   1.504   4.732
28333SOL     OW89845   9.729   0.474   5.289
28333SOL    HW189846   9.807   0.420   5.305
28333SOL    HW289847   9.689   0.436   5.211
28334SOL     OW89848   9.547   1.732   4.186
28334SOL    HW189849   9.550   1.801   4.253
28334SOL    HW289850   9.637   1.726   4.153
28335SOL     OW89851   9.580   1.464   4.257
28335SOL    HW189852   9.558   1.556   4.244
28335SOL    HW289853   9.543   1.443   4.343
28336SOL     OW89854   9.372   1.591   3.836
28336SOL    HW189855   9.363   1.498   3.858
28336SOL    HW289856   9.345   1.637   3.916
28337SOL     OW89857   9.461   0.744   5.294
28337SOL    HW189858   9.554   0.769   5.294
28337SOL    HW289859   9.415   0.823   5.322
28338SOL     OW89860   9.889   1.414   4.435
28338SOL    HW189861   9.849   1.328   4.422
28338SOL    HW289862   9.905   1.446   4.347
28339SOL     OW89863   9.464   0.931   5.011
28339SOL    HW189864   9.553   0.900   4.993
28339SOL    HW289865   9.411   0.852   5.012
28340SOL     OW89866   9.657   0.235   5.597
28340SOL    HW189867   9.701   0.311   5.634
28340SOL    HW289868   9.565   0.262   5.589
28341SOL     OW89869   9.839   0.642   3.940
28341SOL    HW189870   9.911   0.666   3.882
28341SOL    HW289871   9.785   0.721   3.945
28342SOL     OW89872   9.347   1.878   5.306
28342SOL    HW189873   9.348   1.852   5.398
28342SOL    HW289874   9.434   1.856   5.274
28343SOL     OW89875   9.740   0.300   4.557
28343SOL    HW189876   9.807   0.368   4.550
28343SOL    HW289877   9.690   0.308   4.476
28344SOL     OW89878   9.699   1.856   4.621
28344SOL    HW189879   9.730   1.766   4.621
28344SOL    HW289880   9.779   1.909   4.621
28345SOL     OW89881   9.680   0.862   3.955
28345SOL    HW189882   9.664   0.928   3.888
28345SOL    HW289883   9.627   0.889   4.029
28346SOL     OW89884   9.753   1.203   5.470
28346SOL    HW189885   9.725   1.213   5.379
28346SOL    HW289886   9.694   1.260   5.520
28347SOL     OW89887   9.478   0.231   5.203
28347SOL    HW189888   9.451   0.321   5.188
28347SOL    HW289889   9.484   0.222   5.298
28348SOL     OW89890   9.800   1.803   4.096
28348SOL    HW189891   9.817   1.865   4.166
28348SOL    HW289892   9.835   1.845   4.017
28349SOL     OW89893   9.498   1.773   4.980
28349SOL    HW189894   9.521   1.866   4.983
28349SOL    HW289895   9.483   1.755   4.887
28350SOL     OW89896   9.960   0.007   3.799
28350SOL    HW189897   9.996   0.095   3.787
28350SOL    HW289898   9.875   0.009   3.755
28351SOL     OW89899   0.098   1.417   4.618
28351SOL    HW189900   0.101   1.509   4.647
28351SOL    HW289901   0.021   1.413   4.561
28352SOL     OW89902   9.803   1.149   4.407
28352SOL    HW189903   9.815   1.096   4.485
28352SOL    HW289904   9.755   1.092   4.346
28353SOL     OW89905   9.437   0.504   5.153
28353SOL    HW189906   9.501   0.526   5.085
28353SOL    HW289907   9.428   0.584   5.205
28354SOL     OW89908   9.954   0.219   5.042
28354SOL    HW189909   0.009   0.228   4.965
28354SOL    HW289910   9.865   0.238   5.010
28355SOL     OW89911   9.710   0.813   4.960
28355SOL    HW189912   9.783   0.834   5.019
28355SOL    HW289913   9.700   0.718   4.967
28356SOL     OW89914   9.432   1.531   5.088
28356SOL    HW189915   9.435   1.617   5.047
28356SOL    HW289916   9.523   1.502   5.090
28357SOL     OW89917   9.846   0.572   4.547
28357SOL    HW189918   9.826   0.611   4.462
28357SOL    HW289919   9.938   0.592   4.562
28358SOL     OW89920   9.697   1.464   5.056
28358SOL    HW189921   9.688   1.459   4.961
28358SOL    HW289922   9.790   1.481   5.071
28359SOL     OW89923   9.738   0.761   5.309
28359SOL    HW189924   9.808   0.798   5.254
28359SOL    HW289925   9.753   0.667   5.305
28360SOL     OW89926   9.785   0.079   5.408
28360SOL    HW189927   9.783   9.986   5.431
28360SOL    HW289928   9.739   0.123   5.480
28361SOL     OW89929   9.767   0.959   4.727
28361SOL    HW189930   9.786   1.048   4.758
28361SOL    HW289931   9.768   0.905   4.806
28362SOL     OW89932   9.672   0.276   4.999
28362SOL    HW189933   9.611   0.238   5.062
28362SOL    HW289934   9.659   0.226   4.919
28363SOL     OW89935   9.312   1.303   4.988
28363SOL    HW189936   9.343   1.239   5.052
28363SOL    HW289937   9.348   1.387   5.018
28364SOL     OW89938   9.661   0.949   5.544
28364SOL    HW189939   9.706   1.031   5.523
28364SOL    HW289940   9.702   0.884   5.486
28365SOL     OW89941   9.602   0.600   4.669
28365SOL    HW189942   9.556   0.518   4.654
28365SOL    HW289943   9.688   0.587   4.628
28366SOL     OW89944   9.331   1.332   3.927
28366SOL    HW189945   9.241   1.347   3.898
28366SOL    HW289946   9.331   1.242   3.960
28367SOL     OW89947   9.446   1.730   4.712
28367SOL    HW189948   9.414   1.665   4.649
28367SOL    HW289949   9.519   1.772   4.667
28368SOL     OW89950   9.814   1.605   4.622
28368SOL    HW189951   9.900   1.642   4.643
28368SOL    HW289952   9.832   1.542   4.552
28369SOL     OW89953   9.348   0.540   4.855
28369SOL    HW189954   9.369   0.474   4.789
28369SOL    HW289955   9.432   0.562   4.895
28370SOL     OW89956   9.529   0.545   5.474
28370SOL    HW189957   9.606   0.516   5.424
28370SOL    HW289958   9.489   0.613   5.420
28371SOL     OW89959   0.218   0.589   4.009
28371SOL    HW189960   0.263   0.505   4.008
28371SOL    HW289961   0.181   0.596   4.096
28372SOL     OW89962   9.523   1.584   5.442
28372SOL    HW189963   9.496   1.651   5.504
28372SOL    HW289964   9.552   1.511   5.498
28373SOL     OW89965   9.394   1.126   5.188
28373SOL    HW189966   9.405   1.082   5.273
28373SOL    HW289967   9.419   1.059   5.124
28374SOL     OW89968   9.342   1.299   4.710
28374SOL    HW189969   9.342   1.289   4.805
28374SOL    HW289970   9.334   1.210   4.676
28375SOL     OW89971   9.989   1.528   5.322
28375SOL    HW189972   9.971   1.615   5.359
28375SOL    HW289973   0.020   1.546   5.233
28376SOL     OW89974   9.386   1.805   5.570
28376SOL    HW189975   9.352   1.731   5.620
28376SOL    HW289976   9.398   1.875   5.635
28377SOL     OW89977   9.652   1.246   5.224
28377SOL    HW189978   9.670   1.318   5.164
28377SOL    HW289979   9.565   1.215   5.198
28378SOL     OW89980   9.964   1.513   4.187
28378SOL    HW189981   9.953   1.446   4.119
28378SOL    HW289982   9.920   1.591   4.151
28379SOL     OW89983   9.598   1.370   4.000
28379SOL    HW189984   9.503   1.357   3.992
28379SOL    HW289985   9.611   1.393   4.092
28380SOL     OW89986   9.410   0.993   5.429
28380SOL    HW189987   9.338   0.995   5.492
28380SOL    HW289988   9.488   0.982   5.483
28381SOL     OW89989   9.931   0.284   5.308
28381SOL    HW189990   9.951   0.266   5.216
28381SOL    HW289991   9.882   0.206   5.337
28382SOL     OW89992   9.922   0.883   5.126
28382SOL    HW189993   9.926   0.974   5.155
28382SOL    HW289994   0.004   0.868   5.079
28383SOL     OW89995   9.602   1.776   5.255
28383SOL    HW189996   9.593   1.752   5.163
28383SOL    HW289997   9.586   1.695   5.303
28384SOL     OW89998   9.812   0.723   4.317
28384SOL    HW189999   9.903   0.749   4.302
28384SOL    HW290000   9.761   0.802   4.299
28385SOL     OW90001   9.566   1.359   5.608
28385SOL    HW190002   9.477   1.325   5.616
28385SOL    HW290003   9.599   1.361   5.697
28386SOL     OW90004   0.017   1.291   5.467
28386SOL    HW190005   9.930   1.252   5.463
28386SOL    HW290006   0.009   1.370   5.413
28387SOL     OW90007   9.621   0.544   4.944
28387SOL    HW190008   9.654   0.455   4.956
28387SOL    HW290009   9.631   0.561   4.851
28388SOL     OW90010   9.343   1.073   4.014
28388SOL    HW190011   9.404   1.019   4.064
28388SOL    HW290012   9.310   1.014   3.945
28389SOL     OW90013   9.532   0.628   5.740
28389SOL    HW190014   9.442   0.610   5.766
28389SOL    HW290015   9.533   0.615   5.645
28390SOL     OW90016   9.445   0.327   6.693
28390SOL    HW190017   9.510   0.278   6.742
28390SOL    HW290018   9.405   0.263   6.633
28391SOL     OW90019   9.304   0.404   6.240
28391SOL    HW190020   9.220   0.425   6.280
28391SOL    HW290021   9.284   0.332   6.180
28392SOL     OW90022   9.841   1.205   6.681
28392SOL    HW190023   9.773   1.272   6.667
28392SOL    HW290024   9.892   1.239   6.754
28393SOL     OW90025   0.170   0.854   7.461
28393SOL    HW190026   0.080   0.865   7.492
28393SOL    HW290027   0.182   0.923   7.396
28394SOL     OW90028   9.641   1.402   6.655
28394SOL    HW190029   9.564   1.384   6.602
28394SOL    HW290030   9.685   1.474   6.610
28395SOL     OW90031   9.688   0.417   7.073
28395SOL    HW190032   9.766   0.362   7.083
28395SOL    HW290033   9.617   0.355   7.059
28396SOL     OW90034   9.548   1.712   6.071
28396SOL    HW190035   9.565   1.774   6.143
28396SOL    HW290036   9.590   1.753   5.995
28397SOL     OW90037   9.490   1.450   6.113
28397SOL    HW190038   9.514   1.542   6.103
28397SOL    HW290039   9.528   1.424   6.197
28398SOL     OW90040   9.570   1.066   6.455
28398SOL    HW190041   9.604   0.980   6.481
28398SOL    HW290042   9.581   1.120   6.534
28399SOL     OW90043   9.418   0.663   6.172
28399SOL    HW190044   9.393   0.573   6.194
28399SOL    HW290045   9.413   0.710   6.256
28400SOL     OW90046   9.320   1.588   5.720
28400SOL    HW190047   9.313   1.495   5.738
28400SOL    HW290048   9.325   1.629   5.807
28401SOL     OW90049   9.383   0.731   7.152
28401SOL    HW190050   9.464   0.776   7.178
28401SOL    HW290051   9.319   0.802   7.141
28402SOL     OW90052   9.850   1.408   6.362
28402SOL    HW190053   9.815   1.321   6.343
28402SOL    HW290054   9.848   1.454   6.278
28403SOL     OW90055   9.472   0.915   6.814
28403SOL    HW190056   9.545   0.882   6.866
28403SOL    HW290057   9.492   0.889   6.725
28404SOL     OW90058   9.584   0.215   7.355
28404SOL    HW190059   9.645   0.273   7.402
28404SOL    HW290060   9.501   0.228   7.400
28405SOL     OW90061   9.899   0.660   5.853
28405SOL    HW190062   9.991   0.644   5.877
28405SOL    HW290063   9.857   0.687   5.935
28406SOL     OW90064   9.391   0.816   6.404
28406SOL    HW190065   9.470   0.805   6.457
28406SOL    HW290066   9.353   0.898   6.433
28407SOL     OW90067   9.391   1.918   7.193
28407SOL    HW190068   9.408   1.899   7.285
28407SOL    HW290069   9.304   1.880   7.177
28408SOL     OW90070   9.774   0.317   6.417
28408SOL    HW190071   9.813   0.278   6.495
28408SOL    HW290072   9.846   0.323   6.355
28409SOL     OW90073   9.585   0.918   5.816
28409SOL    HW190074   9.617   0.937   5.727
28409SOL    HW290075   9.591   0.823   5.824
28410SOL     OW90076   9.475   0.227   7.098
28410SOL    HW190077   9.416   0.302   7.103
28410SOL    HW290078   9.510   0.218   7.186
28411SOL     OW90079   9.862   1.719   5.934
28411SOL    HW190080   9.799   1.777   5.890
28411SOL    HW290081   9.918   1.687   5.863
28412SOL     OW90082   9.592   1.785   6.872
28412SOL    HW190083   9.613   1.771   6.964
28412SOL    HW290084   9.660   1.737   6.824
28413SOL     OW90085   9.704   0.686   6.090
28413SOL    HW190086   9.712   0.591   6.076
28413SOL    HW290087   9.610   0.700   6.103
28414SOL     OW90088   0.112   1.474   6.386
28414SOL    HW190089   0.147   1.416   6.454
28414SOL    HW290090   0.021   1.446   6.376
28415SOL     OW90091   9.807   0.113   6.138
28415SOL    HW190092   9.885   0.068   6.170
28415SOL    HW290093   9.836   0.157   6.058
28416SOL     OW90094   9.616   0.098   5.837
28416SOL    HW190095   9.634   0.117   5.744
28416SOL    HW290096   9.697   0.122   5.882
28417SOL     OW90097   0.161   0.288   5.998
28417SOL    HW190098   0.124   0.223   5.939
28417SOL    HW290099   0.222   0.339   5.944
28418SOL     OW90100   9.733   1.185   6.270
28418SOL    HW190101   9.685   1.130   6.332
28418SOL    HW290102   9.707   1.152   6.184
28419SOL     OW90103   9.409   0.509   6.987
28419SOL    HW190104   9.482   0.531   6.929
28419SOL    HW290105   9.397   0.587   7.041
28420SOL     OW90106   9.809   0.203   6.669
28420SOL    HW190107   9.883   0.148   6.694
28420SOL    HW290108   9.749   0.198   6.743
28421SOL     OW90109   9.850   0.246   5.893
28421SOL    HW190110   9.930   0.211   5.854
28421SOL    HW290111   9.825   0.318   5.835
28422SOL     OW90112   9.693   0.809   6.942
28422SOL    HW190113   9.785   0.833   6.930
28422SOL    HW290114   9.684   0.726   6.895
28423SOL     OW90115   9.420   1.553   6.942
28423SOL    HW190116   9.422   1.640   6.901
28423SOL    HW290117   9.512   1.528   6.948
28424SOL     OW90118   9.608   1.100   6.037
28424SOL    HW190119   9.606   1.177   5.980
28424SOL    HW290120   9.613   1.026   5.977
28425SOL     OW90121   9.683   1.459   6.921
28425SOL    HW190122   9.667   1.433   6.831
28425SOL    HW290123   9.777   1.477   6.925
28426SOL     OW90124   9.635   0.827   7.206
28426SOL    HW190125   9.658   0.824   7.113
28426SOL    HW290126   9.690   0.759   7.246
28427SOL     OW90127   9.777   0.026   7.292
28427SOL    HW190128   9.729   9.944   7.282
28427SOL    HW290129   9.709   0.092   7.302
28428SOL     OW90130   9.829   0.947   6.583
28428SOL    HW190131   9.894   0.934   6.514
28428SOL    HW290132   9.845   1.036   6.615
28429SOL     OW90133   9.602   0.164   6.858
28429SOL    HW190134   9.559   0.186   6.941
28429SOL    HW290135   9.625   0.071   6.868
28430SOL     OW90136   9.309   1.338   6.810
28430SOL    HW190137   9.339   1.264   6.863
28430SOL    HW290138   9.344   1.415   6.854
28431SOL     OW90139   9.600   0.804   6.590
28431SOL    HW190140   9.683   0.852   6.595
28431SOL    HW290141   9.626   0.713   6.576
28432SOL     OW90142   9.710   0.558   6.543
28432SOL    HW190143   9.719   0.469   6.508
28432SOL    HW290144   9.750   0.614   6.476
28433SOL     OW90145   9.324   1.282   5.754
28433SOL    HW190146   9.235   1.309   5.729
28433SOL    HW290147   9.315   1.191   5.782
28434SOL     OW90148   9.394   1.779   6.521
28434SOL    HW190149   9.362   1.697   6.483
28434SOL    HW290150   9.481   1.790   6.482
28435SOL     OW90151   9.804   1.601   6.548
28435SOL    HW190152   9.872   1.667   6.536
28435SOL    HW290153   9.823   1.535   6.481
28436SOL     OW90154   9.341   0.581   6.685
28436SOL    HW190155   9.383   0.494   6.684
28436SOL    HW290156   9.412   0.642   6.668
28437SOL     OW90157   9.497   0.515   7.297
28437SOL    HW190158   9.562   0.496   7.230
28437SOL    HW290159   9.441   0.582   7.258
28438SOL     OW90160   0.165   0.596   5.889
28438SOL    HW190161   0.218   0.527   5.849
28438SOL    HW290162   0.215   0.623   5.966
28439SOL     OW90163   9.522   1.524   7.313
28439SOL    HW190164   9.483   1.554   7.395
28439SOL    HW290165   9.566   1.442   7.336
28440SOL     OW90166   9.757   0.459   5.735
28440SOL    HW190167   9.823   0.523   5.763
28440SOL    HW290168   9.673   0.504   5.748
28441SOL     OW90169   9.418   1.133   6.968
28441SOL    HW190170   9.369   1.086   7.036
28441SOL    HW290171   9.440   1.065   6.904
28442SOL     OW90172   9.385   1.304   6.547
28442SOL    HW190173   9.354   1.308   6.637
28442SOL    HW290174   9.358   1.218   6.516
28443SOL     OW90175   0.021   1.749   7.356
28443SOL    HW190176   9.939   1.797   7.339
28443SOL    HW290177  10.000   1.658   7.335
28444SOL     OW90178   9.451   1.829   7.441
28444SOL    HW190179   9.424   1.743   7.475
28444SOL    HW290180   9.504   1.867   7.511
28445SOL     OW90181   9.553   0.272   6.250
28445SOL    HW190182   9.477   0.329   6.261
28445SOL    HW290183   9.616   0.303   6.315
28446SOL     OW90184   9.637   1.242   7.101
28446SOL    HW190185   9.662   1.322   7.056
28446SOL    HW290186   9.563   1.208   7.051
28447SOL     OW90187   9.875   1.526   6.124
28447SOL    HW190188   9.948   1.475   6.089
28447SOL    HW290189   9.860   1.594   6.059
28448SOL     OW90190   9.562   1.325   5.883
28448SOL    HW190191   9.474   1.311   5.847
28448SOL    HW290192   9.547   1.376   5.963
28449SOL     OW90193   9.875   0.221   7.101
28449SOL    HW190194   9.968   0.235   7.081
28449SOL    HW290195   9.874   0.143   7.156
28450SOL     OW90196   9.395   0.330   5.578
28450SOL    HW190197   9.320   0.325   5.518
28450SOL    HW290198   9.439   0.412   5.555
28451SOL     OW90199   9.364   0.210   5.835
28451SOL    HW190200   9.368   0.247   5.746
28451SOL    HW290201   9.447   0.164   5.845
28452SOL     OW90202   9.963   0.867   6.945
28452SOL    HW190203   0.014   0.924   6.889
28452SOL    HW290204   0.018   0.852   7.021
28453SOL     OW90205   9.610   1.746   7.150
28453SOL    HW190206   9.533   1.801   7.163
28453SOL    HW290207   9.591   1.667   7.200
28454SOL     OW90208   9.812   0.725   6.351
28454SOL    HW190209   9.883   0.790   6.354
28454SOL    HW290210   9.790   0.719   6.258
28455SOL     OW90211   9.562   1.281   7.469
28455SOL    HW190212   9.468   1.279   7.487
28455SOL    HW290213   9.602   1.294   7.555
28456SOL     OW90214   9.404   1.149   6.237
28456SOL    HW190215   9.454   1.121   6.314
28456SOL    HW290216   9.465   1.138   6.164
28457SOL     OW90217   0.047   1.478   7.270
28457SOL    HW190218   0.058   1.472   7.175
28457SOL    HW290219   0.067   1.390   7.302
28458SOL     OW90220   9.703   0.416   6.062
28458SOL    HW190221   9.765   0.361   6.015
28458SOL    HW290222   9.654   0.355   6.117
28459SOL     OW90223   9.639   0.564   6.826
28459SOL    HW190224   9.685   0.501   6.882
28459SOL    HW290225   9.667   0.542   6.737
28460SOL     OW90226   9.335   1.027   5.884
28460SOL    HW190227   9.425   1.007   5.857
28460SOL    HW290228   9.298   0.942   5.908
28461SOL     OW90229   9.547   0.520   7.574
28461SOL    HW190230   9.469   0.549   7.620
28461SOL    HW290231   9.529   0.537   7.481
28462SOL     OW90232   9.479   0.316   8.420
28462SOL    HW190233   9.546   0.248   8.421
28462SOL    HW290234   9.396   0.269   8.419
28463SOL     OW90235   9.262   0.404   8.061
28463SOL    HW190236   9.179   0.430   8.102
28463SOL    HW290237   9.240   0.327   8.009
28464SOL     OW90238   9.926   1.354   8.632
28464SOL    HW190239   9.840   1.370   8.592
28464SOL    HW290240   9.978   1.431   8.607
28465SOL     OW90241   0.087   0.857   9.308
28465SOL    HW190242   0.038   0.868   9.389
28465SOL    HW290243   0.178   0.876   9.331
28466SOL     OW90244   9.690   1.455   8.520
28466SOL    HW190245   9.621   1.408   8.472
28466SOL    HW290246   9.730   1.511   8.454
28467SOL     OW90247   9.781   0.414   8.890
28467SOL    HW190248   9.850   0.384   8.948
28467SOL    HW290249   9.701   0.374   8.924
28468SOL     OW90250   9.528   1.747   7.921
28468SOL    HW190251   9.541   1.804   7.997
28468SOL    HW290252   9.612   1.747   7.875
28469SOL     OW90253   9.488   1.474   7.957
28469SOL    HW190254   9.500   1.569   7.960
28469SOL    HW290255   9.479   1.448   8.048
28470SOL     OW90256   9.573   1.071   8.327
28470SOL    HW190257   9.591   0.982   8.359
28470SOL    HW290258   9.519   1.111   8.395
28471SOL     OW90259   9.423   0.637   8.022
28471SOL    HW190260   9.369   0.559   8.028
28471SOL    HW290261   9.411   0.681   8.106
28472SOL     OW90262   9.383   1.576   7.548
28472SOL    HW190263   9.355   1.486   7.565
28472SOL    HW290264   9.355   1.625   7.625
28473SOL     OW90265   9.439   0.743   9.019
28473SOL    HW190266   9.521   0.790   9.032
28473SOL    HW290267   9.374   0.811   9.006
28474SOL     OW90268   9.889   1.384   8.183
28474SOL    HW190269   9.857   1.294   8.184
28474SOL    HW290270   9.914   1.400   8.092
28475SOL     OW90271   9.459   0.979   8.713
28475SOL    HW190272   9.552   0.954   8.719
28475SOL    HW290273   9.415   0.898   8.686
28476SOL     OW90274   9.660   0.293   9.247
28476SOL    HW190275   9.717   0.347   9.302
28476SOL    HW290276   9.587   0.269   9.305
28477SOL     OW90277   9.872   0.713   7.718
28477SOL    HW190278   9.879   0.788   7.658
28477SOL    HW290279   9.798   0.734   7.774
28478SOL     OW90280   9.391   0.775   8.258
28478SOL    HW190281   9.474   0.789   8.303
28478SOL    HW290282   9.336   0.848   8.284
28479SOL     OW90283   9.415   1.829   9.003
28479SOL    HW190284   9.426   1.829   9.098
28479SOL    HW290285   9.425   1.920   8.977
28480SOL     OW90286   0.158   0.407   7.678
28480SOL    HW190287   0.196   0.490   7.651
28480SOL    HW290288   0.116   0.373   7.599
28481SOL     OW90289   9.872   0.254   8.460
28481SOL    HW190290   9.933   0.202   8.410
28481SOL    HW290291   9.875   0.341   8.420
28482SOL     OW90292   9.662   1.824   8.395
28482SOL    HW190293   9.719   1.752   8.368
28482SOL    HW290294   9.720   1.900   8.396
28483SOL     OW90295   9.777   1.241   9.189
28483SOL    HW190296   9.739   1.238   9.101
28483SOL    HW290297   9.704   1.265   9.246
28484SOL     OW90298   9.550   0.296   8.991
28484SOL    HW190299   9.458   0.318   9.004
28484SOL    HW290300   9.583   0.277   9.079
28485SOL     OW90301   9.772   1.776   7.795
28485SOL    HW190302   9.830   1.713   7.837
28485SOL    HW290303   9.829   1.850   7.774
28486SOL     OW90304   9.573   1.794   8.661
28486SOL    HW190305   9.654   1.776   8.709
28486SOL    HW290306   9.600   1.795   8.569
28487SOL     OW90307   9.690   0.677   7.939
28487SOL    HW190308   9.716   0.586   7.953
28487SOL    HW290309   9.595   0.676   7.950
28488SOL     OW90310   9.832   0.072   7.561
28488SOL    HW190311   9.924   0.069   7.588
28488SOL    HW290312   9.834   0.055   7.467
28489SOL     OW90313   0.135   1.382   8.312
28489SOL    HW190314   0.189   1.381   8.233
28489SOL    HW290315   0.046   1.395   8.279
28490SOL     OW90316   9.850   0.054   7.988
28490SOL    HW190317   9.765   0.045   8.031
28490SOL    HW290318   9.840   0.129   7.929
28491SOL     OW90319   9.586   0.042   7.677
28491SOL    HW190320   9.665   0.048   7.623
28491SOL    HW290321   9.605   9.972   7.740
28492SOL     OW90322   0.286   0.216   7.826
28492SOL    HW190323   0.238   0.289   7.787
28492SOL    HW290324   0.378   0.234   7.805
28493SOL     OW90325   9.777   1.138   8.160
28493SOL    HW190326   9.706   1.110   8.218
28493SOL    HW290327   9.742   1.125   8.071
28494SOL     OW90328   9.405   0.549   8.825
28494SOL    HW190329   9.495   0.561   8.794
28494SOL    HW290330   9.396   0.612   8.896
28495SOL     OW90331   9.824   0.253   7.783
28495SOL    HW190332   9.794   0.190   7.717
28495SOL    HW290333   9.830   0.336   7.735
28496SOL     OW90334   9.712   0.879   8.745
28496SOL    HW190335   9.796   0.883   8.791
28496SOL    HW290336   9.692   0.786   8.739
28497SOL     OW90337   9.356   1.530   8.747
28497SOL    HW190338   9.339   1.614   8.704
28497SOL    HW290339   9.451   1.522   8.746
28498SOL     OW90340   9.637   1.113   7.910
28498SOL    HW190341   9.628   1.189   7.852
28498SOL    HW290342   9.685   1.049   7.857
28499SOL     OW90343   9.882   0.509   8.324
28499SOL    HW190344   9.843   0.570   8.261
28499SOL    HW290345   9.970   0.544   8.340
28500SOL     OW90346   9.627   1.482   8.784
28500SOL    HW190347   9.655   1.487   8.693
28500SOL    HW290348   9.652   1.567   8.822
28501SOL     OW90349   9.734   0.786   9.070
28501SOL    HW190350   9.793   0.825   9.006
28501SOL    HW290351   9.778   0.707   9.099
28502SOL     OW90352   9.806   0.077   9.140
28502SOL    HW190353   9.868   0.059   9.211
28502SOL    HW290354   9.758   0.155   9.169
28503SOL     OW90355   9.964   0.908   8.485
28503SOL    HW190356   9.987   0.999   8.464
28503SOL    HW290357   9.869   0.909   8.498
28504SOL     OW90358   9.639   0.190   8.743
28504SOL    HW190359   9.593   0.220   8.822
28504SOL    HW290360   9.630   0.095   8.745
28505SOL     OW90361   9.598   0.068   8.117
28505SOL    HW190362   9.567   0.158   8.107
28505SOL    HW290363   9.618   0.059   8.210
28506SOL     OW90364   9.595   0.950   9.250
28506SOL    HW190365   9.619   0.940   9.342
28506SOL    HW290366   9.658   0.896   9.203
28507SOL     OW90367   9.635   0.805   8.391
28507SOL    HW190368   9.694   0.791   8.317
28507SOL    HW290369   9.634   0.721   8.437
28508SOL     OW90370   9.652   0.533   8.475
28508SOL    HW190371   9.592   0.464   8.447
28508SOL    HW290372   9.731   0.519   8.423
28509SOL     OW90373   9.310   1.301   7.593
28509SOL    HW190374   9.221   1.319   7.562
28509SOL    HW290375   9.304   1.215   7.635
28510SOL     OW90376   9.377   1.801   8.388
28510SOL    HW190377   9.357   1.725   8.332
28510SOL    HW290378   9.472   1.811   8.381
28511SOL     OW90379   9.821   1.604   8.333
28511SOL    HW190380   9.901   1.656   8.325
28511SOL    HW290381   9.833   1.532   8.271
28512SOL     OW90382   9.310   0.497   8.568
28512SOL    HW190383   9.372   0.449   8.513
28512SOL    HW290384   9.358   0.514   8.649
28513SOL     OW90385   9.489   0.540   9.196
28513SOL    HW190386   9.565   0.500   9.154
28513SOL    HW290387   9.463   0.610   9.135
28514SOL     OW90388   0.019   0.534   7.878
28514SOL    HW190389   0.060   0.484   7.807
28514SOL    HW290390   9.965   0.599   7.833
28515SOL     OW90391   9.576   1.557   9.166
28515SOL    HW190392   9.559   1.634   9.220
28515SOL    HW290393   9.590   1.486   9.230
28516SOL     OW90394   9.814   0.470   7.604
28516SOL    HW190395   9.843   0.556   7.636
28516SOL    HW290396   9.719   0.480   7.594
28517SOL     OW90397   9.402   1.190   8.884
28517SOL    HW190398   9.415   1.148   8.969
28517SOL    HW290399   9.425   1.123   8.820
28518SOL     OW90400   9.393   1.163   8.511
28518SOL    HW190401   9.405   1.106   8.588
28518SOL    HW290402   9.330   1.116   8.456
28519SOL     OW90403   9.960   1.625   9.177
28519SOL    HW190404   9.888   1.686   9.190
28519SOL    HW290405   0.024   1.673   9.125
28520SOL     OW90406   9.469   1.795   9.271
28520SOL    HW190407   9.415   1.735   9.323
28520SOL    HW290408   9.521   1.843   9.336
28521SOL     OW90409   9.515   0.329   8.140
28521SOL    HW190410   9.431   0.359   8.104
28521SOL    HW290411   9.504   0.338   8.235
28522SOL     OW90412   9.745   1.263   8.897
28522SOL    HW190413   9.691   1.337   8.867
28522SOL    HW290414   9.698   1.186   8.866
28523SOL     OW90415   9.971   1.412   7.921
28523SOL    HW190416   9.977   1.376   7.832
28523SOL    HW290417   9.968   1.507   7.909
28524SOL     OW90418   9.549   1.317   7.746
28524SOL    HW190419   9.461   1.315   7.709
28524SOL    HW290420   9.543   1.379   7.820
28525SOL     OW90421   9.389   1.078   9.133
28525SOL    HW190422   9.321   1.050   9.194
28525SOL    HW290423   9.470   1.045   9.170
28526SOL     OW90424   9.933   0.166   8.895
28526SOL    HW190425   0.025   0.166   8.918
28526SOL    HW290426   9.890   0.121   8.968
28527SOL     OW90427   9.344   0.324   7.444
28527SOL    HW190428   9.255   0.356   7.452
28527SOL    HW290429   9.391   0.394   7.399
28528SOL     OW90430   9.357   0.196   7.698
28528SOL    HW190431   9.357   0.246   7.617
28528SOL    HW290432   9.437   0.144   7.695
28529SOL     OW90433   9.949   0.857   8.895
28529SOL    HW190434   0.005   0.889   8.823
28529SOL    HW290435   0.010   0.821   8.959
28530SOL     OW90436   9.656   1.704   8.945
28530SOL    HW190437   9.575   1.755   8.944
28530SOL    HW290438   9.645   1.643   9.018
28531SOL     OW90439   9.801   0.737   8.183
28531SOL    HW190440   9.886   0.779   8.171
28531SOL    HW290441   9.764   0.731   8.095
28532SOL     OW90442   9.575   1.347   9.350
28532SOL    HW190443   9.481   1.335   9.359
28532SOL    HW290444   9.609   1.343   9.440
28533SOL     OW90445   9.449   1.208   8.114
28533SOL    HW190446   9.486   1.161   8.189
28533SOL    HW290447   9.503   1.181   8.040
28534SOL     OW90448   9.993   1.368   9.089
28534SOL    HW190449   9.930   1.318   9.141
28534SOL    HW290450   9.990   1.456   9.126
28535SOL     OW90451   9.742   0.414   8.009
28535SOL    HW190452   9.759   0.354   7.937
28535SOL    HW290453   9.662   0.382   8.049
28536SOL     OW90454   9.659   0.609   8.736
28536SOL    HW190455   9.717   0.549   8.784
28536SOL    HW290456   9.666   0.581   8.645
28537SOL     OW90457   9.347   1.077   7.765
28537SOL    HW190458   9.440   1.085   7.786
28537SOL    HW290459   9.330   0.983   7.765
28538SOL     OW90460   9.525   0.635   9.452
28538SOL    HW190461   9.440   0.615   9.491
28538SOL    HW290462   9.514   0.615   9.359
28539SOL     OW90463   9.475   1.707   9.789
28539SOL    HW190464   9.495   1.682   9.879
28539SOL    HW290465   9.559   1.705   9.744
28540SOL     OW90466   9.621   1.421   9.883
28540SOL    HW190467   9.627   1.494   9.946
28540SOL    HW290468   9.536   1.381   9.900
28541SOL     OW90469   9.413   0.699   9.877
28541SOL    HW190470   9.336   0.643   9.881
28541SOL    HW290471   9.395   0.769   9.940
28542SOL     OW90472   9.346   1.604   9.418
28542SOL    HW190473   9.336   1.510   9.435
28542SOL    HW290474   9.311   1.646   9.497
28543SOL     OW90475   9.852   0.724   9.574
28543SOL    HW190476   9.939   0.696   9.603
28543SOL    HW290477   9.793   0.693   9.643
28544SOL     OW90478   9.336   0.872   0.072
28544SOL    HW190479   9.306   0.809   0.137
28544SOL    HW290480   9.340   0.955   0.120
28545SOL     OW90481   0.175   0.295   9.426
28545SOL    HW190482   0.205   0.383   9.449
28545SOL    HW290483   0.162   0.251   9.510
28546SOL     OW90484   9.638   0.897   9.529
28546SOL    HW190485   9.723   0.853   9.538
28546SOL    HW290486   9.575   0.825   9.526
28547SOL     OW90487   9.727   1.718   9.656
28547SOL    HW190488   9.766   1.782   9.716
28547SOL    HW290489   9.786   1.643   9.658
28548SOL     OW90490   9.679   0.645   9.779
28548SOL    HW190491   9.736   0.690   9.842
28548SOL    HW290492   9.590   0.667   9.807
28549SOL     OW90493   9.961   0.069   9.376
28549SOL    HW190494   9.994   0.003   9.437
28549SOL    HW290495   9.928   0.139   9.432
28550SOL     OW90496   9.818   0.024   9.759
28550SOL    HW190497   9.744   0.052   9.813
28550SOL    HW290498   9.851   0.104   9.720
28551SOL     OW90499   9.639   0.105   9.547
28551SOL    HW190500   9.713   0.165   9.549
28551SOL    HW290501   9.667   0.030   9.600
28552SOL     OW90502   9.647   1.147   0.016
28552SOL    HW190503   9.671   1.239   0.017
28552SOL    HW290504   9.663   1.119   9.926
28553SOL     OW90505   9.875   0.255   9.572
28553SOL    HW190506   9.953   0.282   9.621
28553SOL    HW290507   9.838   0.337   9.540
28554SOL     OW90508   9.666   1.087   9.745
28554SOL    HW190509   9.643   1.168   9.699
28554SOL    HW290510   9.662   1.019   9.678
28555SOL     OW90511   9.602   0.110   9.900
28555SOL    HW190512   9.615   0.204   9.885
28555SOL    HW290513   9.610   0.099   9.995
28556SOL     OW90514   9.314   1.326   9.443
28556SOL    HW190515   9.226   1.335   9.404
28556SOL    HW290516   9.313   1.240   9.484
28557SOL     OW90517   0.088   0.613   9.655
28557SOL    HW190518   0.076   0.520   9.676
28557SOL    HW290519   0.150   0.644   9.720
28558SOL     OW90520   9.758   0.481   9.449
28558SOL    HW190521   9.821   0.551   9.468
28558SOL    HW290522   9.673   0.520   9.467
28559SOL     OW90523   9.914   1.504   9.702
28559SOL    HW190524   9.993   1.513   9.755
28559SOL    HW290525   9.850   1.465   9.762
28560SOL     OW90526   9.573   1.326   9.630
28560SOL    HW190527   9.479   1.344   9.626
28560SOL    HW290528   9.602   1.369   9.710
28561SOL     OW90529   9.381   0.319   9.325
28561SOL    HW190530   9.306   0.308   9.266
28561SOL    HW290531   9.417   0.405   9.302
28562SOL     OW90532   9.370   0.177   9.569
28562SOL    HW190533   9.366   0.230   9.490
28562SOL    HW290534   9.461   0.147   9.573
28563SOL     OW90535   9.854   0.777   9.942
28563SOL    HW190536   9.935   0.743   9.980
28563SOL    HW290537   9.853   0.870   9.966
28564SOL     OW90538   9.391   1.257   9.920
28564SOL    HW190539   9.340   1.286   9.996
28564SOL    HW290540   9.452   1.193   9.955
28565SOL     OW90541   9.661   0.378   9.899
28565SOL    HW190542   9.680   0.453   9.842
28565SOL    HW290543   9.702   0.401   9.982
28566SOL     OW90544   9.353   1.084   9.571
28566SOL    HW190545   9.448   1.094   9.568
28566SOL    HW290546   9.339   0.991   9.591
28567SOL     OW90547   9.513   2.571   0.141
28567SOL    HW190548   9.453   2.561   0.215
28567SOL    HW290549   9.509   2.487   0.096
28568SOL     OW90550   9.484   2.204   0.988
28568SOL    HW190551   9.565   2.154   0.981
28568SOL    HW290552   9.415   2.139   0.978
28569SOL     OW90553   9.306   2.259   0.647
28569SOL    HW190554   9.217   2.288   0.666
28569SOL    HW290555   9.294   2.174   0.604
28570SOL     OW90556   9.834   3.055   1.136
28570SOL    HW190557   9.765   3.120   1.123
28570SOL    HW290558   9.899   3.099   1.190
28571SOL     OW90559   0.082   2.702   1.822
28571SOL    HW190560   0.135   2.662   1.890
28571SOL    HW290561   0.126   2.679   1.740
28572SOL     OW90562   9.649   3.254   1.105
28572SOL    HW190563   9.565   3.226   1.070
28572SOL    HW290564   9.678   3.324   1.047
28573SOL     OW90565   9.566   3.605   0.455
28573SOL    HW190566   9.586   3.666   0.526
28573SOL    HW290567   9.649   3.594   0.408
28574SOL     OW90568   9.482   3.341   0.455
28574SOL    HW190569   9.520   3.428   0.468
28574SOL    HW290570   9.394   3.347   0.492
28575SOL     OW90571   9.522   2.960   0.868
28575SOL    HW190572   9.536   2.874   0.908
28575SOL    HW290573   9.489   3.014   0.940
28576SOL     OW90574   9.424   2.498   0.558
28576SOL    HW190575   9.396   2.413   0.591
28576SOL    HW290576   9.413   2.558   0.632
28577SOL     OW90577   9.396   3.474   0.171
28577SOL    HW190578   9.379   3.380   0.162
28577SOL    HW290579   9.345   3.500   0.248
28578SOL     OW90580   9.482   2.598   1.555
28578SOL    HW190581   9.575   2.612   1.572
28578SOL    HW290582   9.457   2.669   1.496
28579SOL     OW90583   9.888   3.273   0.729
28579SOL    HW190584   9.846   3.187   0.734
28579SOL    HW290585   9.889   3.293   0.635
28580SOL     OW90586   9.463   2.789   1.347
28580SOL    HW190587   9.551   2.759   1.321
28580SOL    HW290588   9.412   2.786   1.266
28581SOL     OW90589   9.638   2.193   1.789
28581SOL    HW190590   9.695   2.226   1.859
28581SOL    HW290591   9.560   2.162   1.834
28582SOL     OW90592   9.853   2.621   0.344
28582SOL    HW190593   9.835   2.638   0.251
28582SOL    HW290594   9.781   2.564   0.372
28583SOL     OW90595   9.354   2.680   0.758
28583SOL    HW190596   9.430   2.681   0.815
28583SOL    HW290597   9.293   2.742   0.798
28584SOL     OW90598   9.469   3.769   1.644
28584SOL    HW190599   9.429   3.717   1.713
28584SOL    HW290600   9.529   3.708   1.601
28585SOL     OW90601   9.740   2.125   0.928
28585SOL    HW190602   9.780   2.094   1.009
28585SOL    HW290603   9.800   2.193   0.896
28586SOL     OW90604   9.632   3.665   0.891
28586SOL    HW190605   9.675   3.580   0.899
28586SOL    HW290606   9.665   3.716   0.965
28587SOL     OW90607   9.612   2.818   0.223
28587SOL    HW190608   9.685   2.852   0.171
28587SOL    HW290609   9.601   2.728   0.193
28588SOL     OW90610   9.806   3.163   1.729
28588SOL    HW190611   9.774   3.162   1.639
28588SOL    HW290612   9.728   3.146   1.782
28589SOL     OW90613   9.430   2.126   1.579
28589SOL    HW190614   9.356   2.174   1.616
28589SOL    HW290615   9.398   2.036   1.570
28590SOL     OW90616   9.807   3.591   0.323
28590SOL    HW190617   9.857   3.651   0.379
28590SOL    HW290618   9.874   3.546   0.271
28591SOL     OW90619   9.622   3.670   1.305
28591SOL    HW190620   9.616   3.619   1.386
28591SOL    HW290621   9.714   3.694   1.298
28592SOL     OW90622   9.656   2.431   0.406
28592SOL    HW190623   9.676   2.345   0.442
28592SOL    HW290624   9.582   2.462   0.459
28593SOL     OW90625   0.080   3.422   0.860
28593SOL    HW190626   0.147   3.357   0.880
28593SOL    HW290627   0.017   3.377   0.803
28594SOL     OW90628   9.744   3.040   0.714
28594SOL    HW190629   9.675   3.009   0.772
28594SOL    HW290630   9.718   3.010   0.627
28595SOL     OW90631   9.417   2.407   1.361
28595SOL    HW190632   9.508   2.391   1.337
28595SOL    HW290633   9.423   2.468   1.435
28596SOL     OW90634   9.833   2.048   1.175
28596SOL    HW190635   9.902   1.984   1.193
28596SOL    HW290636   9.768   2.034   1.243
28597SOL     OW90637   9.700   2.671   1.279
28597SOL    HW190638   9.784   2.686   1.323
28597SOL    HW290639   9.691   2.576   1.276
28598SOL     OW90640   9.432   3.440   1.406
28598SOL    HW190641   9.435   3.498   1.330
28598SOL    HW290642   9.504   3.470   1.462
28599SOL     OW90643   9.637   2.970   0.458
28599SOL    HW190644   9.632   3.047   0.402
28599SOL    HW290645   9.649   2.897   0.398
28600SOL     OW90646   9.881   2.368   0.884
28600SOL    HW190647   9.882   2.421   0.804
28600SOL    HW290648   9.960   2.394   0.932
28601SOL     OW90649   9.756   2.623   1.600
28601SOL    HW190650   9.814   2.668   1.538
28601SOL    HW290651   9.802   2.541   1.620
28602SOL     OW90652   9.762   1.898   1.662
28602SOL    HW190653   9.733   1.811   1.636
28602SOL    HW290654   9.799   1.886   1.749
28603SOL     OW90655   9.786   2.802   1.045
28603SOL    HW190656   9.811   2.892   1.066
28603SOL    HW290657   9.763   2.763   1.129
28604SOL     OW90658   9.599   2.024   1.350
28604SOL    HW190659   9.510   2.054   1.331
28604SOL    HW290660   9.604   1.938   1.308
28605SOL     OW90661   9.353   3.184   1.324
28605SOL    HW190662   9.376   3.127   1.398
28605SOL    HW290663   9.387   3.270   1.349
28606SOL     OW90664   9.683   2.756   1.834
28606SOL    HW190665   9.750   2.732   1.897
28606SOL    HW290666   9.712   2.716   1.752
28607SOL     OW90667   9.567   2.688   0.935
28607SOL    HW190668   9.651   2.728   0.957
28607SOL    HW290669   9.577   2.596   0.960
28608SOL     OW90670   9.642   2.430   1.006
28608SOL    HW190671   9.584   2.357   0.982
28608SOL    HW290672   9.722   2.412   0.957
28609SOL     OW90673   9.313   3.135   0.178
28609SOL    HW190674   9.222   3.161   0.160
28609SOL    HW290675   9.305   3.051   0.223
28610SOL     OW90676   9.335   3.648   0.900
28610SOL    HW190677   9.288   3.605   0.828
28610SOL    HW290678   9.427   3.640   0.875
28611SOL     OW90679   9.780   3.433   0.929
28611SOL    HW190680   9.864   3.449   0.973
28611SOL    HW290681   9.803   3.378   0.854
28612SOL     OW90682   9.316   2.396   1.102
28612SOL    HW190683   9.372   2.335   1.054
28612SOL    HW290684   9.359   2.407   1.187
28613SOL     OW90685   9.464   2.426   1.778
28613SOL    HW190686   9.527   2.359   1.750
28613SOL    HW290687   9.457   2.485   1.703
28614SOL     OW90688   0.084   2.471   0.312
28614SOL    HW190689   0.119   2.459   0.400
28614SOL    HW290690   0.008   2.528   0.324
28615SOL     OW90691   9.517   3.398   1.750
28615SOL    HW190692   9.560   3.456   1.687
28615SOL    HW290693   9.566   3.316   1.745
28616SOL     OW90694   9.794   2.375   0.166
28616SOL    HW190695   9.814   2.458   0.124
28616SOL    HW290696   9.732   2.397   0.235
28617SOL     OW90697   9.380   2.979   1.527
28617SOL    HW190698   9.424   2.961   1.611
28617SOL    HW290699   9.424   2.923   1.464
28618SOL     OW90700   9.398   3.136   1.052
28618SOL    HW190701   9.383   3.145   1.146
28618SOL    HW290702   9.319   3.173   1.012
28619SOL     OW90703   9.392   3.641   1.882
28619SOL    HW190704   9.324   3.702   1.908
28619SOL    HW290705   9.471   3.673   1.925
28620SOL     OW90706   9.588   2.239   0.697
28620SOL    HW190707   9.492   2.242   0.703
28620SOL    HW290708   9.615   2.198   0.780
28621SOL     OW90709   9.696   3.220   1.478
28621SOL    HW190710   9.725   3.311   1.475
28621SOL    HW290711   9.686   3.194   1.387
28622SOL     OW90712   9.876   3.320   0.458
28622SOL    HW190713   9.906   3.265   0.386
28622SOL    HW290714   9.834   3.395   0.415
28623SOL     OW90715   9.574   3.167   0.265
28623SOL    HW190716   9.487   3.159   0.226
28623SOL    HW290717   9.564   3.232   0.334
28624SOL     OW90718   9.455   2.903   1.789
28624SOL    HW190719   9.385   2.859   1.838
28624SOL    HW290720   9.532   2.850   1.805
28625SOL     OW90721   9.881   2.109   1.502
28625SOL    HW190722   9.958   2.141   1.455
28625SOL    HW290723   9.909   2.028   1.543
28626SOL     OW90724   9.471   2.349   9.979
28626SOL    HW190725   9.422   2.269   9.999
28626SOL    HW290726   9.557   2.318   9.951
28627SOL     OW90727   9.431   2.042   0.300
28627SOL    HW190728   9.473   2.029   0.215
28627SOL    HW290729   9.494   2.008   0.363
28628SOL     OW90730   9.941   2.691   1.402
28628SOL    HW190731   0.004   2.757   1.374
28628SOL    HW290732   9.989   2.608   1.395
28629SOL     OW90733   9.906   2.560   0.683
28629SOL    HW190734   9.971   2.611   0.731
28629SOL    HW290735   9.864   2.623   0.625
28630SOL     OW90736   9.569   3.145   1.861
28630SOL    HW190737   9.522   3.064   1.841
28630SOL    HW290738   9.565   3.153   1.956
28631SOL     OW90739   9.411   2.980   0.619
28631SOL    HW190740   9.449   2.967   0.706
28631SOL    HW290741   9.486   2.976   0.559
28632SOL     OW90742   9.980   3.348   1.630
28632SOL    HW190743   9.935   3.273   1.669
28632SOL    HW290744   9.918   3.382   1.566
28633SOL     OW90745   9.719   2.151   0.477
28633SOL    HW190746   9.685   2.062   0.467
28633SOL    HW290747   9.682   2.181   0.560
28634SOL     OW90748   9.679   2.390   1.272
28634SOL    HW190749   9.740   2.316   1.279
28634SOL    HW290750   9.668   2.403   1.178
28635SOL     OW90751   9.341   2.876   0.290
28635SOL    HW190752   9.437   2.881   0.285
28635SOL    HW290753   9.323   2.784   0.311
28636SOL     OW90754   9.493   2.500   2.047
28636SOL    HW190755   9.419   2.460   2.092
28636SOL    HW290756   9.476   2.486   1.954
28637SOL     OW90757   9.501   2.145   2.862
28637SOL    HW190758   9.536   2.103   2.941
28637SOL    HW290759   9.413   2.107   2.852
28638SOL     OW90760   9.286   2.223   2.589
28638SOL    HW190761   9.274   2.195   2.680
28638SOL    HW290762   9.288   2.141   2.539
28639SOL     OW90763   9.828   3.067   2.982
28639SOL    HW190764   9.762   3.133   2.964
28639SOL    HW290765   9.871   3.097   3.063
28640SOL     OW90766   0.139   2.658   3.672
28640SOL    HW190767   0.138   2.619   3.759
28640SOL    HW290768   0.231   2.661   3.648
28641SOL     OW90769   9.659   3.296   2.944
28641SOL    HW190770   9.576   3.270   2.904
28641SOL    HW290771   9.703   3.349   2.878
28642SOL     OW90772   9.518   3.568   2.329
28642SOL    HW190773   9.520   3.648   2.381
28642SOL    HW290774   9.605   3.562   2.290
28643SOL     OW90775   9.525   3.284   2.388
28643SOL    HW190776   9.515   3.374   2.416
28643SOL    HW290777   9.500   3.232   2.464
28644SOL     OW90778   9.565   2.939   2.782
28644SOL    HW190779   9.590   2.848   2.765
28644SOL    HW290780   9.550   2.942   2.876
28645SOL     OW90781   9.422   2.551   2.433
28645SOL    HW190782   9.479   2.477   2.454
28645SOL    HW290783   9.420   2.603   2.514
28646SOL     OW90784   9.442   2.605   3.428
28646SOL    HW190785   9.464   2.662   3.502
28646SOL    HW290786   9.356   2.635   3.400
28647SOL     OW90787   9.875   3.295   2.574
28647SOL    HW190788   9.837   3.209   2.593
28647SOL    HW290789   9.871   3.302   2.479
28648SOL     OW90790   0.113   1.908   2.346
28648SOL    HW190791   0.172   1.921   2.420
28648SOL    HW290792   0.026   1.909   2.385
28649SOL     OW90793   9.530   2.878   3.050
28649SOL    HW190794   9.582   2.800   3.072
28649SOL    HW290795   9.472   2.889   3.126
28650SOL     OW90796   9.618   2.153   3.668
28650SOL    HW190797   9.680   2.191   3.731
28650SOL    HW290798   9.639   2.060   3.666
28651SOL     OW90799   9.833   2.623   2.100
28651SOL    HW190800   9.924   2.593   2.105
28651SOL    HW290801   9.797   2.605   2.187
28652SOL     OW90802   9.382   2.734   2.645
28652SOL    HW190803   9.461   2.703   2.689
28652SOL    HW290804   9.352   2.807   2.700
28653SOL     OW90805   9.397   3.694   3.461
28653SOL    HW190806   9.385   3.678   3.555
28653SOL    HW290807   9.324   3.647   3.420
28654SOL     OW90808   0.277   2.174   2.052
28654SOL    HW190809   0.351   2.233   2.039
28654SOL    HW290810   0.308   2.089   2.020
28655SOL     OW90811   9.812   2.083   2.733
28655SOL    HW190812   9.826   2.061   2.825
28655SOL    HW290813   9.835   2.175   2.726
28656SOL     OW90814   9.636   3.651   2.818
28656SOL    HW190815   9.713   3.599   2.794
28656SOL    HW290816   9.646   3.732   2.769
28657SOL     OW90817   9.586   2.775   2.147
28657SOL    HW190818   9.675   2.754   2.118
28657SOL    HW290819   9.534   2.699   2.123
28658SOL     OW90820   9.790   3.122   3.600
28658SOL    HW190821   9.716   3.133   3.540
28658SOL    HW290822   9.789   3.029   3.622
28659SOL     OW90823   9.515   2.097   3.361
28659SOL    HW190824   9.459   2.028   3.395
28659SOL    HW290825   9.572   2.120   3.434
28660SOL     OW90826   9.772   3.581   2.214
28660SOL    HW190827   9.803   3.649   2.273
28660SOL    HW290828   9.849   3.558   2.162
28661SOL     OW90829   9.580   3.663   3.083
28661SOL    HW190830   9.625   3.586   3.118
28661SOL    HW290831   9.595   3.659   2.988
28662SOL     OW90832   9.713   2.571   2.341
28662SOL    HW190833   9.694   2.480   2.364
28662SOL    HW290834   9.628   2.615   2.345
28663SOL     OW90835   9.892   1.983   1.925
28663SOL    HW190836   9.926   2.025   2.004
28663SOL    HW290837   9.954   1.912   1.907
28664SOL     OW90838   0.128   3.301   2.683
28664SOL    HW190839   0.159   3.216   2.651
28664SOL    HW290840   0.040   3.309   2.647
28665SOL     OW90841   9.837   1.946   2.378
28665SOL    HW190842   9.766   1.919   2.436
28665SOL    HW290843   9.808   2.029   2.341
28666SOL     OW90844   9.638   1.905   2.018
28666SOL    HW190845   9.718   1.941   1.982
28666SOL    HW290846   9.667   1.842   2.084
28667SOL     OW90847   0.307   2.194   2.328
28667SOL    HW190848   0.297   2.183   2.233
28667SOL    HW290849   0.298   2.105   2.362
28668SOL     OW90850   9.753   3.052   2.608
28668SOL    HW190851   9.702   3.019   2.683
28668SOL    HW290852   9.718   3.005   2.533
28669SOL     OW90853   9.405   2.411   3.233
28669SOL    HW190854   9.494   2.383   3.212
28669SOL    HW290855   9.417   2.479   3.299
28670SOL     OW90856   9.838   2.067   3.000
28670SOL    HW190857   9.898   2.123   3.048
28670SOL    HW290858   9.762   2.058   3.058
28671SOL     OW90859   9.798   2.184   2.226
28671SOL    HW190860   9.882   2.147   2.197
28671SOL    HW290861   9.767   2.234   2.151
28672SOL     OW90862   9.700   2.660   3.123
28672SOL    HW190863   9.735   2.663   3.212
28672SOL    HW290864   9.678   2.568   3.108
28673SOL     OW90865   9.403   3.448   3.252
28673SOL    HW190866   9.362   3.508   3.189
28673SOL    HW290867   9.495   3.447   3.228
28674SOL     OW90868   9.617   2.963   2.370
28674SOL    HW190869   9.652   3.039   2.324
28674SOL    HW290870   9.610   2.895   2.302
28675SOL     OW90871   9.872   2.352   2.740
28675SOL    HW190872   9.865   2.430   2.685
28675SOL    HW290873   9.937   2.375   2.807
28676SOL     OW90874   9.682   3.427   3.187
28676SOL    HW190875   9.673   3.375   3.107
28676SOL    HW290876   9.770   3.406   3.219
28677SOL     OW90877   9.728   2.595   3.445
28677SOL    HW190878   9.642   2.623   3.415
28677SOL    HW290879   9.709   2.532   3.515
28678SOL     OW90880   9.854   1.879   3.494
28678SOL    HW190881   9.773   1.835   3.468
28678SOL    HW290882   9.875   1.936   3.419
28679SOL     OW90883   9.820   2.796   2.899
28679SOL    HW190884   9.822   2.889   2.922
28679SOL    HW290885   9.789   2.753   2.979
28680SOL     OW90886   9.575   2.025   3.100
28680SOL    HW190887   9.556   2.060   3.187
28680SOL    HW290888   9.582   1.931   3.112
28681SOL     OW90889   9.339   3.195   3.154
28681SOL    HW190890   9.339   3.134   3.227
28681SOL    HW290891   9.355   3.281   3.194
28682SOL     OW90892   9.591   1.842   2.472
28682SOL    HW190893   9.546   1.927   2.478
28682SOL    HW290894   9.608   1.817   2.563
28683SOL     OW90895   9.771   2.854   3.656
28683SOL    HW190896   9.796   2.795   3.728
28683SOL    HW290897   9.682   2.825   3.633
28684SOL     OW90898   9.618   2.660   2.761
28684SOL    HW190899   9.705   2.691   2.789
28684SOL    HW290900   9.615   2.569   2.789
28685SOL     OW90901   9.616   2.389   2.843
28685SOL    HW190902   9.574   2.304   2.842
28685SOL    HW290903   9.705   2.373   2.810
28686SOL     OW90904   9.291   3.193   2.022
28686SOL    HW190905   9.200   3.210   1.998
28686SOL    HW290906   9.293   3.101   2.047
28687SOL     OW90907   9.364   3.651   2.811
28687SOL    HW190908   9.335   3.572   2.766
28687SOL    HW290909   9.459   3.648   2.807
28688SOL     OW90910   9.843   3.470   2.785
28688SOL    HW190911   9.932   3.496   2.809
28688SOL    HW290912   9.853   3.414   2.709
28689SOL     OW90913   9.358   2.455   2.961
28689SOL    HW190914   9.441   2.441   2.916
28689SOL    HW290915   9.378   2.440   3.053
28690SOL     OW90916   9.572   2.423   3.610
28690SOL    HW190917   9.582   2.328   3.609
28690SOL    HW290918   9.506   2.441   3.543
28691SOL     OW90919   0.059   2.450   2.161
28691SOL    HW190920   0.039   2.358   2.178
28691SOL    HW290921   0.099   2.481   2.243
28692SOL     OW90922   9.734   2.360   2.017
28692SOL    HW190923   9.789   2.438   2.026
28692SOL    HW290924   9.646   2.392   2.034
28693SOL     OW90925   9.385   3.201   2.878
28693SOL    HW190926   9.368   3.195   2.972
28693SOL    HW290927   9.367   3.113   2.845
28694SOL     OW90928   9.997   3.520   3.532
28694SOL    HW190929   9.981   3.575   3.608
28694SOL    HW290930   0.085   3.486   3.545
28695SOL     OW90931   9.394   3.620   3.732
28695SOL    HW190932   9.333   3.622   3.806
28695SOL    HW290933   9.472   3.664   3.765
28696SOL     OW90934   9.585   2.110   2.581
28696SOL    HW190935   9.520   2.127   2.649
28696SOL    HW290936   9.665   2.089   2.630
28697SOL     OW90937   9.582   3.159   3.416
28697SOL    HW190938   9.620   3.164   3.328
28697SOL    HW290939   9.499   3.114   3.404
28698SOL     OW90940   9.852   3.306   2.295
28698SOL    HW190941   9.886   3.271   2.213
28698SOL    HW290942   9.809   3.388   2.270
28699SOL     OW90943   9.532   3.270   2.118
28699SOL    HW190944   9.448   3.224   2.121
28699SOL    HW290945   9.556   3.281   2.210
28700SOL     OW90946   9.498   2.791   3.624
28700SOL    HW190947   9.419   2.835   3.593
28700SOL    HW290948   9.491   2.794   3.720
28701SOL     OW90949   9.393   2.203   1.933
28701SOL    HW190950   9.319   2.212   1.994
28701SOL    HW290951   9.390   2.284   1.882
28702SOL     OW90952   9.334   2.006   2.166
28702SOL    HW190953   9.269   2.073   2.144
28702SOL    HW290954   9.405   2.021   2.104
28703SOL     OW90955   9.660   3.640   3.399
28703SOL    HW190956   9.568   3.661   3.412
28703SOL    HW290957   9.660   3.564   3.341
28704SOL     OW90958   9.868   2.562   2.574
28704SOL    HW190959   9.947   2.617   2.575
28704SOL    HW290960   9.825   2.584   2.492
28705SOL     OW90961   9.444   3.076   2.561
28705SOL    HW190962   9.468   3.038   2.645
28705SOL    HW290963   9.495   3.026   2.497
28706SOL     OW90964   0.016   3.243   3.499
28706SOL    HW190965   9.944   3.190   3.533
28706SOL    HW290966   9.979   3.331   3.490
28707SOL     OW90967   9.630   2.319   2.406
28707SOL    HW190968   9.684   2.270   2.344
28707SOL    HW290969   9.604   2.253   2.471
28708SOL     OW90970   9.659   2.381   3.138
28708SOL    HW190971   9.719   2.328   3.189
28708SOL    HW290972   9.665   2.346   3.049
28709SOL     OW90973   9.339   2.923   2.124
28709SOL    HW190974   9.434   2.910   2.127
28709SOL    HW290975   9.303   2.836   2.145
28710SOL     OW90976   9.526   2.510   3.869
28710SOL    HW190977   9.459   2.449   3.899
28710SOL    HW290978   9.544   2.484   3.779
28711SOL     OW90979   9.507   2.104   4.677
28711SOL    HW190980   9.542   2.016   4.681
28711SOL    HW290981   9.431   2.103   4.735
28712SOL     OW90982   9.324   2.272   4.327
28712SOL    HW190983   9.245   2.271   4.380
28712SOL    HW290984   9.315   2.196   4.269
28713SOL     OW90985   0.103   2.718   5.619
28713SOL    HW190986   0.023   2.765   5.641
28713SOL    HW290987   0.101   2.710   5.524
28714SOL     OW90988   9.589   3.453   4.755
28714SOL    HW190989   9.603   3.363   4.784
28714SOL    HW290990   9.648   3.463   4.680
28715SOL     OW90991   9.760   2.296   5.192
28715SOL    HW190992   9.844   2.252   5.183
28715SOL    HW290993   9.699   2.225   5.212
28716SOL     OW90994   9.495   3.606   4.127
28716SOL    HW190995   9.535   3.641   4.206
28716SOL    HW290996   9.526   3.515   4.122
28717SOL     OW90997   9.579   3.294   4.336
28717SOL    HW190998   9.560   3.316   4.245
28717SOL    HW290999   9.509   3.233   4.361
28718SOL     OW91000   9.446   2.519   4.264
28718SOL    HW191001   9.409   2.434   4.288
28718SOL    HW291002   9.457   2.565   4.348
28719SOL     OW91003   9.457   2.686   5.225
28719SOL    HW191004   9.527   2.630   5.258
28719SOL    HW291005   9.488   2.714   5.139
28720SOL     OW91006   9.530   2.814   4.988
28720SOL    HW191007   9.625   2.815   4.988
28720SOL    HW291008   9.506   2.773   4.905
28721SOL     OW91009   9.527   2.104   5.531
28721SOL    HW191010   9.532   2.199   5.543
28721SOL    HW291011   9.487   2.072   5.612
28722SOL     OW91012   9.840   2.686   4.009
28722SOL    HW191013   9.911   2.623   3.992
28722SOL    HW291014   9.787   2.645   4.077
28723SOL     OW91015   9.456   2.694   4.482
28723SOL    HW191016   9.478   2.664   4.571
28723SOL    HW291017   9.510   2.772   4.470
28724SOL     OW91018   9.460   3.720   5.308
28724SOL    HW191019   9.541   3.673   5.331
28724SOL    HW291020   9.422   3.668   5.237
28725SOL     OW91021   0.186   2.267   3.933
28725SOL    HW191022   0.143   2.264   3.848
28725SOL    HW291023   0.178   2.178   3.967
28726SOL     OW91024   9.670   3.711   4.608
28726SOL    HW191025   9.740   3.650   4.631
28726SOL    HW291026   9.711   3.797   4.614
28727SOL     OW91027   9.564   2.780   3.907
28727SOL    HW191028   9.651   2.783   3.947
28727SOL    HW291029   9.544   2.686   3.902
28728SOL     OW91030   9.537   2.137   5.252
28728SOL    HW191031   9.492   2.221   5.242
28728SOL    HW291032   9.533   2.118   5.345
28729SOL     OW91033   9.811   3.568   4.037
28729SOL    HW191034   9.834   3.639   4.097
28729SOL    HW291035   9.889   3.557   3.983
28730SOL     OW91036   9.644   3.630   4.958
28730SOL    HW191037   9.667   3.564   5.024
28730SOL    HW291038   9.626   3.579   4.879
28731SOL     OW91039   9.717   2.512   4.192
28731SOL    HW191040   9.744   2.421   4.203
28731SOL    HW291041   9.622   2.512   4.206
28732SOL     OW91042   9.947   1.993   3.725
28732SOL    HW191043   0.034   1.954   3.735
28732SOL    HW291044   9.910   1.949   3.648
28733SOL     OW91045   0.160   3.347   4.588
28733SOL    HW191046   0.127   3.286   4.655
28733SOL    HW291047   0.132   3.308   4.505
28734SOL     OW91048   9.567   1.904   3.934
28734SOL    HW191049   9.637   1.969   3.931
28734SOL    HW291050   9.600   1.836   3.992
28735SOL     OW91051   0.319   2.041   4.250
28735SOL    HW191052   0.235   2.047   4.294
28735SOL    HW291053   0.298   2.033   4.157
28736SOL     OW91054   9.398   2.363   5.202
28736SOL    HW191055   9.444   2.413   5.136
28736SOL    HW291056   9.356   2.429   5.258
28737SOL     OW91057   9.834   2.030   4.999
28737SOL    HW191058   9.869   2.002   4.915
28737SOL    HW291059   9.739   2.033   4.985
28738SOL     OW91060   9.774   2.073   3.920
28738SOL    HW191061   9.849   2.056   3.862
28738SOL    HW291062   9.780   2.167   3.939
28739SOL     OW91063   9.781   2.680   4.973
28739SOL    HW191064   9.818   2.684   5.061
28739SOL    HW291065   9.720   2.606   4.976
28740SOL     OW91066   9.412   3.513   5.112
28740SOL    HW191067   9.398   3.551   5.026
28740SOL    HW291068   9.483   3.450   5.099
28741SOL     OW91069   9.819   2.494   4.666
28741SOL    HW191070   9.842   2.517   4.576
28741SOL    HW291071   9.901   2.461   4.704
28742SOL     OW91072   9.622   3.339   5.055
28742SOL    HW191073   9.637   3.288   4.975
28742SOL    HW291074   9.649   3.280   5.126
28743SOL     OW91075   9.673   2.531   5.314
28743SOL    HW191076   9.741   2.596   5.298
28743SOL    HW291077   9.704   2.452   5.271
28744SOL     OW91078   9.740   1.954   5.421
28744SOL    HW191079   9.695   1.890   5.365
28744SOL    HW291080   9.669   2.001   5.464
28745SOL     OW91081   9.938   2.828   4.796
28745SOL    HW191082   9.890   2.910   4.791
28745SOL    HW291083   9.881   2.770   4.846
28746SOL     OW91084   9.553   2.042   4.992
28746SOL    HW191085   9.545   2.074   5.082
28746SOL    HW291086   9.476   2.078   4.947
28747SOL     OW91087   9.271   3.149   4.994
28747SOL    HW191088   9.326   3.106   5.059
28747SOL    HW291089   9.322   3.143   4.913
28748SOL     OW91090   9.615   1.927   4.361
28748SOL    HW191091   9.697   1.963   4.327
28748SOL    HW291092   9.632   1.913   4.454
28749SOL     OW91093   9.581   2.691   4.734
28749SOL    HW191094   9.603   2.769   4.684
28749SOL    HW291095   9.660   2.636   4.729
28750SOL     OW91096   9.602   2.353   4.772
28750SOL    HW191097   9.585   2.270   4.728
28750SOL    HW291098   9.672   2.394   4.721
28751SOL     OW91099   9.341   3.200   3.912
28751SOL    HW191100   9.248   3.221   3.908
28751SOL    HW291101   9.344   3.109   3.943
28752SOL     OW91102   9.387   3.657   4.667
28752SOL    HW191103   9.371   3.564   4.649
28752SOL    HW291104   9.482   3.667   4.655
28753SOL     OW91105   9.881   3.543   4.684
28753SOL    HW191106   9.969   3.580   4.675
28753SOL    HW291107   9.895   3.459   4.726
28754SOL     OW91108   9.327   2.379   4.835
28754SOL    HW191109   9.418   2.395   4.807
28754SOL    HW291110   9.322   2.284   4.846
28755SOL     OW91111   9.526   2.383   5.493
28755SOL    HW191112   9.586   2.435   5.440
28755SOL    HW291113   9.439   2.409   5.462
28756SOL     OW91114   0.008   2.461   4.026
28756SOL    HW191115   0.065   2.392   3.991
28756SOL    HW291116   0.033   2.468   4.118
28757SOL     OW91117   9.534   3.370   5.486
28757SOL    HW191118   9.492   3.402   5.566
28757SOL    HW291119   9.513   3.277   5.482
28758SOL     OW91120   9.770   2.349   3.908
28758SOL    HW191121   9.847   2.387   3.950
28758SOL    HW291122   9.702   2.415   3.920
28759SOL     OW91123   9.429   3.004   5.172
28759SOL    HW191124   9.419   2.953   5.252
28759SOL    HW291125   9.463   2.942   5.108
28760SOL     OW91126   9.401   3.156   4.748
28760SOL    HW191127   9.493   3.159   4.773
28760SOL    HW291128   9.392   3.074   4.699
28761SOL     OW91129   9.937   3.474   5.404
28761SOL    HW191130   9.959   3.523   5.483
28761SOL    HW291131   0.020   3.436   5.375
28762SOL     OW91132   9.444   3.701   5.622
28762SOL    HW191133   9.421   3.609   5.634
28762SOL    HW291134   9.509   3.718   5.690
28763SOL     OW91135   9.574   2.249   4.451
28763SOL    HW191136   9.490   2.257   4.405
28763SOL    HW291137   9.555   2.193   4.526
28764SOL     OW91138   9.670   3.140   5.249
28764SOL    HW191139   9.589   3.095   5.223
28764SOL    HW291140   9.732   3.069   5.267
28765SOL     OW91141   9.812   3.295   4.108
28765SOL    HW191142   9.881   3.264   4.048
28765SOL    HW291143   9.809   3.389   4.095
28766SOL     OW91144   9.532   3.334   4.069
28766SOL    HW191145   9.472   3.283   4.015
28766SOL    HW291146   9.618   3.294   4.054
28767SOL     OW91147   9.384   2.881   5.421
28767SOL    HW191148   9.315   2.859   5.484
28767SOL    HW291149   9.407   2.798   5.380
28768SOL     OW91150   9.936   2.049   5.253
28768SOL    HW191151   9.906   2.036   5.163
28768SOL    HW291152   9.864   2.019   5.308
28769SOL     OW91153   9.362   2.207   3.785
28769SOL    HW191154   9.309   2.237   3.711
28769SOL    HW291155   9.446   2.184   3.747
28770SOL     OW91156   9.331   2.024   3.998
28770SOL    HW191157   9.321   2.092   3.932
28770SOL    HW291158   9.421   1.993   3.987
28771SOL     OW91159   9.875   2.695   5.230
28771SOL    HW191160   9.857   2.785   5.256
28771SOL    HW291161   9.963   2.678   5.262
28772SOL     OW91162   9.684   3.561   5.354
28772SOL    HW191163   9.631   3.491   5.393
28772SOL    HW291164   9.773   3.527   5.355
28773SOL     OW91165   9.873   2.597   4.407
28773SOL    HW191166   9.839   2.685   4.422
28773SOL    HW291167   9.820   2.563   4.335
28774SOL     OW91168   9.463   3.117   5.534
28774SOL    HW191169   9.446   3.034   5.489
28774SOL    HW291170   9.410   3.112   5.614
28775SOL     OW91171   9.389   3.096   4.399
28775SOL    HW191172   9.352   3.049   4.474
28775SOL    HW291173   9.463   3.042   4.372
28776SOL     OW91174   9.779   2.252   4.263
28776SOL    HW191175   9.824   2.167   4.262
28776SOL    HW291176   9.716   2.245   4.334
28777SOL     OW91177   9.609   2.458   5.023
28777SOL    HW191178   9.668   2.397   5.068
28777SOL    HW291179   9.600   2.422   4.935
28778SOL     OW91180   9.340   2.925   4.007
28778SOL    HW191181   9.423   2.898   3.967
28778SOL    HW291182   9.311   2.848   4.056
28779SOL     OW91183   9.440   2.454   5.742
28779SOL    HW191184   9.361   2.403   5.729
28779SOL    HW291185   9.490   2.443   5.661
28780SOL     OW91186   9.482   2.194   6.577
28780SOL    HW191187   9.533   2.154   6.648
28780SOL    HW291188   9.407   2.136   6.566
28781SOL     OW91189   9.337   2.228   6.147
28781SOL    HW191190   9.248   2.221   6.180
28781SOL    HW291191   9.338   2.173   6.068
28782SOL     OW91192   9.837   3.149   6.729
28782SOL    HW191193   9.786   3.068   6.735
28782SOL    HW291194   9.898   3.144   6.803
28783SOL     OW91195   0.163   2.653   7.515
28783SOL    HW191196   0.240   2.708   7.501
28783SOL    HW291197   0.123   2.646   7.428
28784SOL     OW91198   9.547   3.376   6.656
28784SOL    HW191199   9.527   3.304   6.597
28784SOL    HW291200   9.631   3.410   6.625
28785SOL     OW91201   9.724   2.316   7.097
28785SOL    HW191202   9.802   2.263   7.084
28785SOL    HW291203   9.651   2.254   7.088
28786SOL     OW91204   9.508   3.553   6.064
28786SOL    HW191205   9.518   3.627   6.124
28786SOL    HW291206   9.588   3.555   6.011
28787SOL     OW91207   9.610   3.290   6.086
28787SOL    HW191208   9.565   3.374   6.100
28787SOL    HW291209   9.580   3.235   6.158
28788SOL     OW91210   9.523   2.907   6.451
28788SOL    HW191211   9.488   2.856   6.524
28788SOL    HW291212   9.614   2.880   6.445
28789SOL     OW91213   9.432   2.499   6.106
28789SOL    HW191214   9.413   2.407   6.125
28789SOL    HW291215   9.446   2.538   6.193
28790SOL     OW91216   9.369   3.434   5.695
28790SOL    HW191217   9.353   3.342   5.716
28790SOL    HW291218   9.336   3.482   5.771
28791SOL     OW91219   9.455   2.598   7.197
28791SOL    HW191220   9.550   2.607   7.185
28791SOL    HW291221   9.426   2.686   7.221
28792SOL     OW91222   9.889   3.288   6.319
28792SOL    HW191223   9.831   3.211   6.322
28792SOL    HW291224   9.966   3.257   6.272
28793SOL     OW91225   0.115   1.896   6.094
28793SOL    HW191226   0.177   1.966   6.076
28793SOL    HW291227   0.062   1.889   6.014
28794SOL     OW91228   9.586   2.830   6.862
28794SOL    HW191229   9.668   2.781   6.859
28794SOL    HW291230   9.536   2.798   6.787
28795SOL     OW91231   9.713   2.122   7.411
28795SOL    HW191232   9.736   2.200   7.461
28795SOL    HW291233   9.646   2.079   7.464
28796SOL     OW91234   9.846   2.616   5.820
28796SOL    HW191235   9.863   2.698   5.773
28796SOL    HW291236   9.813   2.645   5.905
28797SOL     OW91237   9.458   2.661   6.328
28797SOL    HW191238   9.531   2.624   6.377
28797SOL    HW291239   9.467   2.756   6.340
28798SOL     OW91240   9.303   3.760   7.133
28798SOL    HW191241   9.336   3.727   7.216
28798SOL    HW291242   9.329   3.852   7.131
28799SOL     OW91243   0.120   2.236   5.783
28799SOL    HW191244   0.161   2.319   5.759
28799SOL    HW291245   0.089   2.200   5.701
28800SOL     OW91246   9.921   2.047   6.464
28800SOL    HW191247   9.902   2.045   6.558
28800SOL    HW291248   9.917   2.140   6.441
28801SOL     OW91249   9.639   3.701   6.478
28801SOL    HW191250   9.698   3.626   6.491
28801SOL    HW291251   9.695   3.778   6.489
28802SOL     OW91252   9.597   2.825   5.833
28802SOL    HW191253   9.674   2.879   5.817
28802SOL    HW291254   9.613   2.745   5.784
28803SOL     OW91255   9.820   3.029   7.334
28803SOL    HW191256   9.822   3.110   7.283
28803SOL    HW291257   9.908   2.992   7.323
28804SOL     OW91258   9.514   2.135   7.064
28804SOL    HW191259   9.451   2.207   7.071
28804SOL    HW291260   9.473   2.062   7.111
28805SOL     OW91261   9.751   3.560   5.929
28805SOL    HW191262   9.806   3.608   5.990
28805SOL    HW291263   9.794   3.474   5.921
28806SOL     OW91264   9.624   3.657   6.831
28806SOL    HW191265   9.648   3.646   6.923
28806SOL    HW291266   9.671   3.586   6.786
28807SOL     OW91267   9.711   2.567   6.071
28807SOL    HW191268   9.747   2.482   6.094
28807SOL    HW291269   9.616   2.552   6.064
28808SOL     OW91270   9.816   1.948   5.698
28808SOL    HW191271   9.908   1.939   5.722
28808SOL    HW291272   9.815   1.940   5.602
28809SOL     OW91273   0.069   3.382   6.512
28809SOL    HW191274   0.101   3.300   6.551
28809SOL    HW291275   0.015   3.354   6.438
28810SOL     OW91276   9.806   1.972   6.140
28810SOL    HW191277   9.714   1.948   6.154
28810SOL    HW291278   9.806   2.020   6.058
28811SOL     OW91279   9.614   1.875   5.861
28811SOL    HW191280   9.534   1.922   5.837
28811SOL    HW291281   9.679   1.901   5.795
28812SOL     OW91282   0.250   2.119   6.000
28812SOL    HW191283   0.213   2.173   5.930
28812SOL    HW291284   0.340   2.101   5.971
28813SOL     OW91285   9.763   3.047   6.302
28813SOL    HW191286   9.776   2.969   6.357
28813SOL    HW291287   9.724   3.013   6.222
28814SOL     OW91288   9.406   2.394   7.023
28814SOL    HW191289   9.475   2.415   6.960
28814SOL    HW291290   9.406   2.467   7.084
28815SOL     OW91291   9.851   2.071   6.734
28815SOL    HW191292   9.888   2.088   6.820
28815SOL    HW291293   9.756   2.070   6.748
28816SOL     OW91294   9.794   2.137   5.915
28816SOL    HW191295   9.799   2.074   5.843
28816SOL    HW291296   9.765   2.219   5.873
28817SOL     OW91297   9.468   3.423   6.925
28817SOL    HW191298   9.497   3.415   6.834
28817SOL    HW291299   9.534   3.376   6.976
28818SOL     OW91300   9.632   2.980   6.063
28818SOL    HW191301   9.692   3.019   5.999
28818SOL    HW291302   9.606   2.897   6.025
28819SOL     OW91303   9.793   3.429   6.815
28819SOL    HW191304   9.794   3.338   6.784
28819SOL    HW291305   9.879   3.441   6.855
28820SOL     OW91306   9.728   2.592   7.191
28820SOL    HW191307   9.794   2.643   7.145
28820SOL    HW291308   9.743   2.501   7.163
28821SOL     OW91309   9.815   1.913   7.248
28821SOL    HW191310   9.744   1.858   7.215
28821SOL    HW291311   9.772   1.977   7.304
28822SOL     OW91312   9.581   2.055   6.803
28822SOL    HW191313   9.562   2.091   6.890
28822SOL    HW291314   9.575   1.961   6.815
28823SOL     OW91315   9.360   3.159   6.874
28823SOL    HW191316   9.376   3.079   6.924
28823SOL    HW291317   9.430   3.218   6.901
28824SOL     OW91318   9.543   1.933   6.236
28824SOL    HW191319   9.565   2.018   6.272
28824SOL    HW291320   9.457   1.946   6.195
28825SOL     OW91321   9.672   2.799   7.384
28825SOL    HW191322   9.730   2.873   7.365
28825SOL    HW291323   9.705   2.728   7.329
28826SOL     OW91324   9.475   2.703   6.643
28826SOL    HW191325   9.553   2.679   6.592
28826SOL    HW291326   9.431   2.620   6.661
28827SOL     OW91327   9.309   3.147   5.771
28827SOL    HW191328   9.221   3.164   5.738
28827SOL    HW291329   9.304   3.059   5.809
28828SOL     OW91330   9.375   3.633   6.535
28828SOL    HW191331   9.353   3.550   6.493
28828SOL    HW291332   9.469   3.643   6.519
28829SOL     OW91333   9.785   3.469   6.508
28829SOL    HW191334   9.864   3.467   6.562
28829SOL    HW291335   9.806   3.413   6.433
28830SOL     OW91336   9.410   2.434   6.698
28830SOL    HW191337   9.433   2.361   6.641
28830SOL    HW291338   9.487   2.448   6.753
28831SOL     OW91339   9.523   2.376   7.353
28831SOL    HW191340   9.600   2.340   7.308
28831SOL    HW291341   9.492   2.446   7.296
28832SOL     OW91342   0.016   2.432   5.960
28832SOL    HW191343   0.030   2.355   5.905
28832SOL    HW291344   9.962   2.490   5.907
28833SOL     OW91345   9.494   3.394   7.336
28833SOL    HW191346   9.574   3.439   7.307
28833SOL    HW291347   9.526   3.314   7.378
28834SOL     OW91348   9.708   2.373   5.810
28834SOL    HW191349   9.757   2.455   5.801
28834SOL    HW291350   9.616   2.399   5.803
28835SOL     OW91351   9.423   2.952   7.040
28835SOL    HW191352   9.437   2.918   7.128
28835SOL    HW291353   9.486   2.906   6.985
28836SOL     OW91354   9.325   3.153   6.553
28836SOL    HW191355   9.373   3.121   6.629
28836SOL    HW291356   9.294   3.074   6.509
28837SOL     OW91357   9.831   3.585   7.251
28837SOL    HW191358   9.791   3.636   7.321
28837SOL    HW291359   9.888   3.523   7.296
28838SOL     OW91360   9.409   3.680   7.370
28838SOL    HW191361   9.393   3.593   7.407
28838SOL    HW291362   9.503   3.694   7.384
28839SOL     OW91363   9.563   2.197   6.306
28839SOL    HW191364   9.482   2.218   6.260
28839SOL    HW291365   9.544   2.214   6.398
28840SOL     OW91366   9.609   3.233   7.061
28840SOL    HW191367   9.696   3.251   7.096
28840SOL    HW291368   9.597   3.139   7.074
28841SOL     OW91369   9.862   3.292   5.953
28841SOL    HW191370   9.896   3.202   5.947
28841SOL    HW291371   9.787   3.285   6.012
28842SOL     OW91372   9.570   3.225   5.820
28842SOL    HW191373   9.481   3.191   5.819
28842SOL    HW291374   9.588   3.243   5.912
28843SOL     OW91375   9.418   2.855   7.296
28843SOL    HW191376   9.352   2.856   7.366
28843SOL    HW291377   9.501   2.846   7.343
28844SOL     OW91378   9.898   2.100   7.051
28844SOL    HW191379   9.991   2.115   7.065
28844SOL    HW291380   9.874   2.035   7.117
28845SOL     OW91381   9.918   2.744   7.068
28845SOL    HW191382   9.942   2.835   7.049
28845SOL    HW291383   9.921   2.700   6.983
28846SOL     OW91384   9.609   3.664   7.099
28846SOL    HW191385   9.615   3.757   7.120
28846SOL    HW291386   9.682   3.624   7.147
28847SOL     OW91387   9.887   2.745   6.192
28847SOL    HW191388   9.846   2.773   6.274
28847SOL    HW291389   9.822   2.687   6.151
28848SOL     OW91390   9.583   3.163   7.463
28848SOL    HW191391   9.654   3.112   7.425
28848SOL    HW291392   9.599   3.160   7.558
28849SOL     OW91393   9.432   3.075   6.244
28849SOL    HW191394   9.459   3.031   6.325
28849SOL    HW291395   9.490   3.040   6.177
28850SOL     OW91396   9.863   3.249   7.178
28850SOL    HW191397   9.920   3.222   7.106
28850SOL    HW291398   9.917   3.307   7.232
28851SOL     OW91399   9.771   2.300   6.147
28851SOL    HW191400   9.771   2.245   6.069
28851SOL    HW291401   9.703   2.261   6.203
28852SOL     OW91402   9.626   2.466   6.870
28852SOL    HW191403   9.683   2.417   6.929
28852SOL    HW291404   9.680   2.538   6.838
28853SOL     OW91405   9.331   2.888   5.889
28853SOL    HW191406   9.424   2.881   5.870
28853SOL    HW291407   9.299   2.798   5.886
28854SOL     OW91408   9.533   2.495   7.602
28854SOL    HW191409   9.470   2.449   7.658
28854SOL    HW291410   9.519   2.458   7.515
28855SOL     OW91411   9.501   2.176   8.439
28855SOL    HW191412   9.544   2.146   8.519
28855SOL    HW291413   9.414   2.138   8.442
28856SOL     OW91414   9.318   2.279   8.079
28856SOL    HW191415   9.251   2.287   8.147
28856SOL    HW291416   9.288   2.206   8.024
28857SOL     OW91417   9.788   3.134   8.679
28857SOL    HW191418   9.737   3.176   8.609
28857SOL    HW291419   9.877   3.128   8.645
28858SOL     OW91420   0.029   2.625   9.244
28858SOL    HW191421   0.081   2.612   9.324
28858SOL    HW291422   9.961   2.559   9.249
28859SOL     OW91423   9.674   3.304   8.485
28859SOL    HW191424   9.627   3.256   8.417
28859SOL    HW291425   9.732   3.363   8.436
28860SOL     OW91426   9.556   3.561   7.934
28860SOL    HW191427   9.566   3.632   7.998
28860SOL    HW291428   9.635   3.566   7.881
28861SOL     OW91429   9.604   3.289   7.966
28861SOL    HW191430   9.573   3.380   7.970
28861SOL    HW291431   9.551   3.243   8.031
28862SOL     OW91432   9.549   2.956   8.385
28862SOL    HW191433   9.573   2.865   8.368
28862SOL    HW291434   9.528   2.958   8.479
28863SOL     OW91435   9.419   2.539   7.994
28863SOL    HW191436   9.392   2.451   8.021
28863SOL    HW291437   9.404   2.594   8.071
28864SOL     OW91438   9.260   3.459   7.582
28864SOL    HW191439   9.299   3.372   7.581
28864SOL    HW291440   9.302   3.503   7.657
28865SOL     OW91441   9.930   3.218   8.275
28865SOL    HW191442   9.860   3.162   8.242
28865SOL    HW291443   0.008   3.188   8.228
28866SOL     OW91444   9.486   2.789   8.718
28866SOL    HW191445   9.577   2.760   8.712
28866SOL    HW291446   9.435   2.712   8.693
28867SOL     OW91447   9.646   2.079   9.179
28867SOL    HW191448   9.704   2.152   9.159
28867SOL    HW291449   9.589   2.111   9.249
28868SOL     OW91450   9.887   2.565   7.724
28868SOL    HW191451   9.885   2.653   7.686
28868SOL    HW291452   9.820   2.567   7.792
28869SOL     OW91453   9.384   2.715   8.202
28869SOL    HW191454   9.463   2.711   8.256
28869SOL    HW291455   9.335   2.789   8.238
28870SOL     OW91456   9.367   3.712   9.002
28870SOL    HW191457   9.367   3.701   9.097
28870SOL    HW291458   9.406   3.798   8.987
28871SOL     OW91459   0.152   2.228   7.737
28871SOL    HW191460   0.193   2.276   7.665
28871SOL    HW291461   0.119   2.148   7.697
28872SOL     OW91462   9.816   2.055   8.398
28872SOL    HW191463   9.839   2.074   8.489
28872SOL    HW291464   9.819   2.139   8.353
28873SOL     OW91465   9.665   3.685   8.372
28873SOL    HW191466   9.729   3.615   8.359
28873SOL    HW291467   9.718   3.765   8.376
28874SOL     OW91468   9.600   2.764   7.648
28874SOL    HW191469   9.635   2.779   7.560
28874SOL    HW291470   9.580   2.671   7.651
28875SOL     OW91471   9.792   3.064   9.217
28875SOL    HW191472   9.775   3.074   9.123
28875SOL    HW291473   9.711   3.092   9.259
28876SOL     OW91474   9.501   2.088   8.946
28876SOL    HW191475   9.488   2.183   8.941
28876SOL    HW291476   9.559   2.076   9.021
28877SOL     OW91477   9.791   3.606   7.633
28877SOL    HW191478   9.792   3.649   7.719
28877SOL    HW291479   9.743   3.667   7.576
28878SOL     OW91480   9.595   3.663   8.656
28878SOL    HW191481   9.629   3.583   8.696
28878SOL    HW291482   9.623   3.659   8.565
28879SOL     OW91483   9.696   2.555   7.930
28879SOL    HW191484   9.714   2.461   7.939
28879SOL    HW291485   9.602   2.562   7.946
28880SOL     OW91486   9.932   2.034   8.007
28880SOL    HW191487   9.900   1.955   8.050
28880SOL    HW291488   9.953   2.006   7.917
28881SOL     OW91489   9.601   1.936   7.649
28881SOL    HW191490   9.652   2.011   7.680
28881SOL    HW291491   9.644   1.860   7.688
28882SOL     OW91492   0.318   2.096   7.920
28882SOL    HW191493   0.242   2.138   7.880
28882SOL    HW291494   0.385   2.098   7.852
28883SOL     OW91495   9.721   3.064   8.193
28883SOL    HW191496   9.661   3.027   8.257
28883SOL    HW291497   9.702   3.017   8.112
28884SOL     OW91498   9.863   2.098   8.667
28884SOL    HW191499   9.894   2.090   8.757
28884SOL    HW291500   9.768   2.105   8.674
28885SOL     OW91501   9.770   2.131   7.732
28885SOL    HW191502   9.850   2.078   7.737
28885SOL    HW291503   9.795   2.207   7.680
28886SOL     OW91504   9.737   2.668   8.702
28886SOL    HW191505   9.815   2.672   8.756
28886SOL    HW291506   9.687   2.594   8.738
28887SOL     OW91507   9.402   3.439   8.820
28887SOL    HW191508   9.377   3.463   8.730
28887SOL    HW291509   9.498   3.436   8.818
28888SOL     OW91510   9.642   2.939   7.952
28888SOL    HW191511   9.700   2.971   7.884
28888SOL    HW291512   9.632   2.845   7.933
28889SOL     OW91513   9.851   2.359   8.356
28889SOL    HW191514   9.870   2.404   8.274
28889SOL    HW291515   9.925   2.379   8.413
28890SOL     OW91516   9.662   3.407   8.742
28890SOL    HW191517   9.671   3.364   8.657
28890SOL    HW291518   9.736   3.374   8.793
28891SOL     OW91519   9.787   1.841   9.163
28891SOL    HW191520   9.760   1.810   9.076
28891SOL    HW291521   9.738   1.922   9.176
28892SOL     OW91522   9.869   2.758   8.475
28892SOL    HW191523   9.893   2.845   8.507
28892SOL    HW291524   9.828   2.715   8.550
28893SOL     OW91525   9.585   2.069   8.682
28893SOL    HW191526   9.557   2.092   8.770
28893SOL    HW291527   9.571   1.974   8.677
28894SOL     OW91528   9.402   3.152   8.696
28894SOL    HW191529   9.424   3.080   8.755
28894SOL    HW291530   9.428   3.231   8.743
28895SOL     OW91531   9.593   1.910   8.129
28895SOL    HW191532   9.593   2.005   8.130
28895SOL    HW291533   9.624   1.885   8.216
28896SOL     OW91534   9.623   2.696   8.350
28896SOL    HW191535   9.714   2.711   8.375
28896SOL    HW291536   9.606   2.605   8.372
28897SOL     OW91537   9.592   2.433   8.418
28897SOL    HW191538   9.549   2.347   8.425
28897SOL    HW291539   9.684   2.412   8.402
28898SOL     OW91540   9.318   3.151   7.589
28898SOL    HW191541   9.389   3.167   7.527
28898SOL    HW291542   9.354   3.085   7.649
28899SOL     OW91543   9.382   3.624   8.398
28899SOL    HW191544   9.362   3.548   8.344
28899SOL    HW291545   9.476   3.639   8.386
28900SOL     OW91546   9.846   3.474   8.336
28900SOL    HW191547   9.920   3.534   8.327
28900SOL    HW291548   9.879   3.390   8.307
28901SOL     OW91549   9.404   2.522   8.613
28901SOL    HW191550   9.460   2.500   8.539
28901SOL    HW291551   9.457   2.503   8.690
28902SOL     OW91552   0.146   2.502   7.814
28902SOL    HW191553   0.144   2.406   7.811
28902SOL    HW291554   0.059   2.528   7.783
28903SOL     OW91555   9.513   3.383   9.208
28903SOL    HW191556   9.469   3.423   9.283
28903SOL    HW291557   9.558   3.307   9.246
28904SOL     OW91558   9.778   2.353   7.567
28904SOL    HW191559   9.847   2.409   7.603
28904SOL    HW291560   9.697   2.402   7.581
28905SOL     OW91561   9.455   2.978   8.917
28905SOL    HW191562   9.453   2.940   9.005
28905SOL    HW291563   9.466   2.903   8.859
28906SOL     OW91564   9.311   3.177   8.436
28906SOL    HW191565   9.348   3.157   8.521
28906SOL    HW291566   9.305   3.093   8.391
28907SOL     OW91567  10.001   3.444   9.155
28907SOL    HW191568   9.965   3.503   9.222
28907SOL    HW291569   0.093   3.433   9.181
28908SOL     OW91570   9.391   3.698   9.269
28908SOL    HW191571   9.366   3.619   9.318
28908SOL    HW291572   9.457   3.739   9.324
28909SOL     OW91573   9.568   2.182   8.166
28909SOL    HW191574   9.487   2.223   8.134
28909SOL    HW291575   9.560   2.184   8.262
28910SOL     OW91576   9.724   3.099   8.946
28910SOL    HW191577   9.755   3.104   8.856
28910SOL    HW291578   9.637   3.061   8.940
28911SOL     OW91579   9.932   3.366   7.902
28911SOL    HW191580   9.882   3.288   7.930
28911SOL    HW291581   9.883   3.439   7.939
28912SOL     OW91582   9.595   3.143   7.735
28912SOL    HW191583   9.537   3.073   7.765
28912SOL    HW291584   9.606   3.199   7.812
28913SOL     OW91585   9.431   2.916   9.190
28913SOL    HW191586   9.351   2.893   9.237
28913SOL    HW291587   9.478   2.973   9.251
28914SOL     OW91588   9.935   2.092   8.943
28914SOL    HW191589   0.027   2.120   8.944
28914SOL    HW291590   9.889   2.160   8.991
28915SOL     OW91591   9.356   2.194   7.478
28915SOL    HW191592   9.290   2.191   7.408
28915SOL    HW291593   9.425   2.250   7.443
28916SOL     OW91594   9.344   2.022   7.701
28916SOL    HW191595   9.332   2.081   7.627
28916SOL    HW291596   9.436   1.995   7.696
28917SOL     OW91597   9.985   2.711   8.817
28917SOL    HW191598   0.047   2.756   8.759
28917SOL    HW291599   0.040   2.676   8.887
28918SOL     OW91600   9.616   3.575   9.035
28918SOL    HW191601   9.530   3.609   9.009
28918SOL    HW291602   9.596   3.502   9.094
28919SOL     OW91603   9.901   2.516   8.132
28919SOL    HW191604   9.948   2.593   8.165
28919SOL    HW291605   9.839   2.552   8.068
28920SOL     OW91606   9.563   3.145   9.354
28920SOL    HW191607   9.469   3.159   9.362
28920SOL    HW291608   9.596   3.155   9.443
28921SOL     OW91609   9.423   3.088   8.085
28921SOL    HW191610   9.395   3.033   8.158
28921SOL    HW291611   9.485   3.032   8.036
28922SOL     OW91612   9.963   3.299   8.923
28922SOL    HW191613   9.907   3.227   8.950
28922SOL    HW291614   9.972   3.353   9.001
28923SOL     OW91615   9.732   2.289   7.964
28923SOL    HW191616   9.751   2.220   7.901
28923SOL    HW291617   9.691   2.243   8.038
28924SOL     OW91618   9.401   2.931   7.733
28924SOL    HW191619   9.477   2.884   7.700
28924SOL    HW291620   9.346   2.863   7.772
28925SOL     OW91621   9.541   3.716   9.694
28925SOL    HW191622   9.560   3.754   9.780
28925SOL    HW291623   9.614   3.657   9.677
28926SOL     OW91624   9.433   3.374   9.792
28926SOL    HW191625   9.338   3.383   9.783
28926SOL    HW291626   9.445   3.305   9.857
28927SOL     OW91627   9.447   2.583   9.830
28927SOL    HW191628   9.436   2.500   9.877
28927SOL    HW291629   9.404   2.648   9.885
28928SOL     OW91630   9.348   3.466   9.415
28928SOL    HW191631   9.327   3.375   9.432
28928SOL    HW291632   9.321   3.512   9.495
28929SOL     OW91633   0.095   1.851   9.839
28929SOL    HW191634   0.127   1.894   9.918
28929SOL    HW291635  -0.001   1.858   9.845
28930SOL     OW91636   9.828   2.663   9.571
28930SOL    HW191637   9.914   2.623   9.561
28930SOL    HW291638   9.795   2.630   9.654
28931SOL     OW91639   9.347   2.759   0.027
28931SOL    HW191640   9.409   2.698   0.068
28931SOL    HW291641   9.323   2.819   0.097
28932SOL     OW91642   0.120   2.269   9.483
28932SOL    HW191643   0.085   2.257   9.395
28932SOL    HW291644   0.115   2.183   9.523
28933SOL     OW91645   9.583   3.673   0.152
28933SOL    HW191646   9.522   3.600   0.150
28933SOL    HW291647   9.658   3.641   0.203
28934SOL     OW91648   9.612   2.834   9.591
28934SOL    HW191649   9.695   2.788   9.575
28934SOL    HW291650   9.545   2.767   9.580
28935SOL     OW91651   9.785   3.608   9.618
28935SOL    HW191652   9.843   3.652   9.679
28935SOL    HW291653   9.839   3.539   9.579
28936SOL     OW91654   9.717   2.541   9.787
28936SOL    HW191655   9.724   2.453   9.824
28936SOL    HW291656   9.625   2.565   9.800
28937SOL     OW91657   9.876   1.990   9.400
28937SOL    HW191658   9.949   1.978   9.460
28937SOL    HW291659   9.885   1.919   9.336
28938SOL     OW91660   9.826   1.911   9.820
28938SOL    HW191661   9.775   1.908   9.901
28938SOL    HW291662   9.807   1.998   9.784
28939SOL     OW91663   9.620   1.904   9.479
28939SOL    HW191664   9.700   1.948   9.452
28939SOL    HW291665   9.649   1.835   9.538
28940SOL     OW91666   0.242   2.151   9.788
28940SOL    HW191667   0.308   2.218   9.806
28940SOL    HW291668   0.266   2.077   9.843
28941SOL     OW91669   9.760   3.054   0.080
28941SOL    HW191670   9.688   3.095   0.127
28941SOL    HW291671   9.726   3.041   9.991
28942SOL     OW91672   9.797   2.145   9.663
28942SOL    HW191673   9.881   2.115   9.630
28942SOL    HW291674   9.759   2.195   9.591
28943SOL     OW91675   9.667   3.004   9.814
28943SOL    HW191676   9.643   3.081   9.762
28943SOL    HW291677   9.662   2.931   9.752
28944SOL     OW91678   9.664   1.887   0.037
28944SOL    HW191679   9.688   1.891   0.130
28944SOL    HW291680   9.628   1.799   0.026
28945SOL     OW91681   9.302   3.188   9.419
28945SOL    HW191682   9.210   3.206   9.400
28945SOL    HW291683   9.299   3.114   9.480
28946SOL     OW91684   0.055   2.507   9.594
28946SOL    HW191685   0.073   2.418   9.564
28946SOL    HW291686   0.074   2.505   9.688
28947SOL     OW91687   9.714   2.381   9.499
28947SOL    HW191688   9.781   2.391   9.432
28947SOL    HW291689   9.745   2.433   9.573
28948SOL     OW91690   9.926   3.261   9.738
28948SOL    HW191691   9.969   3.194   9.791
28948SOL    HW291692   9.845   3.280   9.783
28949SOL     OW91693   9.553   3.188   9.631
28949SOL    HW191694   9.472   3.137   9.632
28949SOL    HW291695   9.531   3.269   9.677
28950SOL     OW91696   9.394   2.192   9.320
28950SOL    HW191697   9.338   2.166   9.247
28950SOL    HW291698   9.367   2.282   9.341
28951SOL     OW91699   9.376   2.017   9.543
28951SOL    HW191700   9.372   2.078   9.470
28951SOL    HW291701   9.464   1.979   9.538
28952SOL     OW91702   9.834   2.637   0.059
28952SOL    HW191703   9.903   2.703   0.060
28952SOL    HW291704   9.811   2.628   9.967
28953SOL     OW91705   9.447   3.144   9.937
28953SOL    HW191706   9.393   3.136   0.016
28953SOL    HW291707   9.486   3.057   9.927
28954SOL     OW91708   9.722   2.285   9.887
28954SOL    HW191709   9.748   2.229   9.814
28954SOL    HW291710   9.794   2.279   9.949
28955SOL     OW91711   9.367   2.969   9.588
28955SOL    HW191712   9.458   2.940   9.596
28955SOL    HW291713   9.319   2.891   9.560
28956SOL     OW91714   9.469   4.376   0.110
28956SOL    HW191715   9.408   4.303   0.119
28956SOL    HW291716   9.551   4.343   0.146
28957SOL     OW91717   9.359   4.177   0.536
28957SOL    HW191718   9.336   4.151   0.625
28957SOL    HW291719   9.363   4.096   0.486
28958SOL     OW91720   9.862   4.934   1.124
28958SOL    HW191721   9.795   5.002   1.115
28958SOL    HW291722   9.909   4.957   1.204
28959SOL     OW91723   0.056   4.564   1.886
28959SOL    HW191724   9.977   4.535   1.931
28959SOL    HW291725   0.120   4.496   1.904
28960SOL     OW91726   9.666   5.137   1.085
28960SOL    HW191727   9.586   5.105   1.043
28960SOL    HW291728   9.700   5.203   1.025
28961SOL     OW91729   9.779   4.075   1.420
28961SOL    HW191730   9.855   4.016   1.421
28961SOL    HW291731   9.716   4.034   1.479
28962SOL     OW91732   9.568   5.419   0.406
28962SOL    HW191733   9.555   5.488   0.472
28962SOL    HW291734   9.663   5.407   0.403
28963SOL     OW91735   9.486   5.169   0.495
28963SOL    HW191736   9.500   5.260   0.469
28963SOL    HW291737   9.438   5.175   0.577
28964SOL     OW91738   9.597   4.840   0.893
28964SOL    HW191739   9.643   4.786   0.958
28964SOL    HW291740   9.534   4.891   0.945
28965SOL     OW91741   9.440   4.438   0.535
28965SOL    HW191742   9.415   4.346   0.538
28965SOL    HW291743   9.424   4.470   0.623
28966SOL     OW91744   9.355   5.280   0.095
28966SOL    HW191745   9.341   5.196   0.138
28966SOL    HW291746   9.326   5.345   0.159
28967SOL     OW91747   9.375   4.468   1.583
28967SOL    HW191748   9.450   4.525   1.598
28967SOL    HW291749   9.299   4.521   1.605
28968SOL     OW91750   9.895   5.128   0.746
28968SOL    HW191751   9.855   5.041   0.749
28968SOL    HW291752   9.901   5.148   0.653
28969SOL     OW91753   0.124   3.705   0.472
28969SOL    HW191754   0.184   3.735   0.540
28969SOL    HW291755   0.039   3.741   0.497
28970SOL     OW91756   9.465   4.706   1.239
28970SOL    HW191757   9.530   4.635   1.237
28970SOL    HW291758   9.385   4.664   1.208
28971SOL     OW91759   9.651   3.971   1.910
28971SOL    HW191760   9.689   4.056   1.934
28971SOL    HW291761   9.558   3.990   1.897
28972SOL     OW91762   9.898   4.420   0.299
28972SOL    HW191763   9.909   4.498   0.245
28972SOL    HW291764   9.855   4.451   0.378
28973SOL     OW91765   9.412   4.562   0.783
28973SOL    HW191766   9.501   4.539   0.809
28973SOL    HW291767   9.376   4.608   0.859
28974SOL     OW91768   0.213   4.076   0.207
28974SOL    HW191769   0.299   4.098   0.171
28974SOL    HW291770   0.200   3.984   0.185
28975SOL     OW91771   9.778   4.030   0.891
28975SOL    HW191772   9.796   3.973   0.965
28975SOL    HW291773   9.843   4.100   0.898
28976SOL     OW91774   9.753   5.548   0.765
28976SOL    HW191775   9.751   5.477   0.830
28976SOL    HW291776   9.780   5.625   0.815
28977SOL     OW91777   9.627   4.680   0.209
28977SOL    HW191778   9.665   4.765   0.187
28977SOL    HW291779   9.673   4.617   0.153
28978SOL     OW91780   9.821   4.983   1.709
28978SOL    HW191781   9.776   4.977   1.625
28978SOL    HW291782   9.752   4.978   1.774
28979SOL     OW91783   9.493   4.009   1.506
28979SOL    HW191784   9.413   4.015   1.455
28979SOL    HW291785   9.488   3.923   1.549
28980SOL     OW91786   9.842   5.411   0.383
28980SOL    HW191787   9.862   5.492   0.429
28980SOL    HW291788   9.905   5.408   0.311
28981SOL     OW91789   9.446   5.566   1.175
28981SOL    HW191790   9.540   5.567   1.159
28981SOL    HW291791   9.406   5.571   1.088
28982SOL     OW91792   9.719   4.433   0.534
28982SOL    HW191793   9.719   4.338   0.522
28982SOL    HW291794   9.627   4.459   0.528
28983SOL     OW91795   9.931   3.883   0.087
28983SOL    HW191796   0.008   3.844   0.129
28983SOL    HW291797   9.916   3.827   0.010
28984SOL     OW91798   0.144   5.223   0.820
28984SOL    HW191799   0.186   5.201   0.737
28984SOL    HW291800   0.056   5.186   0.812
28985SOL     OW91801   9.872   3.819   0.498
28985SOL    HW191802   9.795   3.804   0.553
28985SOL    HW291803   9.841   3.879   0.430
28986SOL     OW91804   0.181   4.004   0.470
28986SOL    HW191805   0.193   4.026   0.378
28986SOL    HW291806   0.243   3.933   0.486
28987SOL     OW91807   9.784   4.877   0.695
28987SOL    HW191808   9.722   4.861   0.766
28987SOL    HW291809   9.734   4.859   0.615
28988SOL     OW91810   9.359   4.323   1.348
28988SOL    HW191811   9.452   4.312   1.328
28988SOL    HW291812   9.358   4.375   1.429
28989SOL     OW91813   9.799   3.887   1.119
28989SOL    HW191814   9.847   3.848   1.192
28989SOL    HW291815   9.713   3.909   1.156
28990SOL     OW91816   9.785   3.992   0.295
28990SOL    HW191817   9.835   3.949   0.226
28990SOL    HW291818   9.740   4.064   0.251
28991SOL     OW91819   9.681   4.531   1.241
28991SOL    HW191820   9.745   4.546   1.311
28991SOL    HW291821   9.658   4.438   1.249
28992SOL     OW91822   9.352   5.391   1.371
28992SOL    HW191823   9.358   5.459   1.304
28992SOL    HW291824   9.434   5.342   1.363
28993SOL     OW91825   9.633   4.825   0.467
28993SOL    HW191826   9.618   4.900   0.410
28993SOL    HW291827   9.632   4.749   0.408
28994SOL     OW91828   9.918   4.269   0.863
28994SOL    HW191829   9.984   4.216   0.818
28994SOL    HW291830   9.961   4.296   0.944
28995SOL     OW91831   9.594   5.243   1.332
28995SOL    HW191832   9.630   5.216   1.248
28995SOL    HW291833   9.652   5.314   1.361
28996SOL     OW91834   9.721   4.466   1.626
28996SOL    HW191835   9.776   4.505   1.558
28996SOL    HW291836   9.711   4.375   1.599
28997SOL     OW91837   9.794   4.679   1.040
28997SOL    HW191838   9.824   4.764   1.071
28997SOL    HW291839   9.761   4.634   1.118
28998SOL     OW91840   9.543   3.916   1.227
28998SOL    HW191841   9.546   3.964   1.310
28998SOL    HW291842   9.557   3.825   1.251
28999SOL     OW91843   9.641   3.786   0.644
28999SOL    HW191844   9.603   3.872   0.663
28999SOL    HW291845   9.638   3.740   0.728
29000SOL     OW91846   9.665   4.571   1.875
29000SOL    HW191847   9.731   4.526   1.928
29000SOL    HW291848   9.680   4.540   1.786
29001SOL     OW91849   9.674   4.483   0.873
29001SOL    HW191850   9.708   4.544   0.938
29001SOL    HW291851   9.650   4.405   0.923
29002SOL     OW91852   9.607   4.238   0.998
29002SOL    HW191853   9.522   4.200   0.976
29002SOL    HW291854   9.671   4.173   0.966
29003SOL     OW91855   9.316   5.008   0.161
29003SOL    HW191856   9.232   5.011   0.114
29003SOL    HW291857   9.303   4.943   0.230
29004SOL     OW91858   9.804   5.320   0.926
29004SOL    HW191859   9.885   5.359   0.958
29004SOL    HW291860   9.833   5.256   0.861
29005SOL     OW91861   9.424   4.215   1.708
29005SOL    HW191862   9.460   4.172   1.631
29005SOL    HW291863   9.381   4.293   1.673
29006SOL     OW91864   0.152   4.313   0.343
29006SOL    HW191865   0.167   4.227   0.304
29006SOL    HW291866   0.060   4.332   0.323
29007SOL     OW91867   9.563   5.227   1.708
29007SOL    HW191868   9.545   5.304   1.763
29007SOL    HW291869   9.573   5.156   1.771
29008SOL     OW91870   9.681   4.257   0.239
29008SOL    HW191871   9.763   4.307   0.239
29008SOL    HW291872   9.666   4.236   0.332
29009SOL     OW91873   9.396   4.991   1.023
29009SOL    HW191874   9.335   5.065   1.026
29009SOL    HW291875   9.345   4.919   0.984
29010SOL     OW91876   9.986   5.403   1.788
29010SOL    HW191877   9.901   5.446   1.785
29010SOL    HW291878   0.046   5.464   1.746
29011SOL     OW91879   9.498   5.466   1.824
29011SOL    HW191880   9.425   5.436   1.879
29011SOL    HW291881   9.542   5.532   1.878
29012SOL     OW91882   9.573   4.042   0.715
29012SOL    HW191883   9.496   4.060   0.768
29012SOL    HW291884   9.645   4.036   0.778
29013SOL     OW91885   9.630   5.026   1.504
29013SOL    HW191886   9.625   5.095   1.438
29013SOL    HW291887   9.595   5.066   1.583
29014SOL     OW91888   9.932   5.170   0.475
29014SOL    HW191889   9.933   5.116   0.396
29014SOL    HW291890   9.888   5.250   0.449
29015SOL     OW91891   9.570   5.026   0.277
29015SOL    HW191892   9.486   5.026   0.231
29015SOL    HW291893   9.556   5.082   0.354
29016SOL     OW91894   9.457   4.750   1.759
29016SOL    HW191895   9.371   4.722   1.728
29016SOL    HW291896   9.493   4.672   1.802
29017SOL     OW91897   9.397   4.083   9.987
29017SOL    HW191898   9.400   4.034   0.069
29017SOL    HW291899   9.401   4.015   9.919
29018SOL     OW91900   9.420   3.905   0.201
29018SOL    HW191901   9.377   3.900   0.286
29018SOL    HW291902   9.472   3.825   0.196
29019SOL     OW91903   9.886   4.560   1.420
29019SOL    HW191904   9.935   4.639   1.442
29019SOL    HW291905   9.953   4.498   1.392
29020SOL     OW91906   9.633   5.441   1.545
29020SOL    HW191907   9.570   5.500   1.587
29020SOL    HW291908   9.622   5.358   1.592
29021SOL     OW91909   9.567   4.986   1.840
29021SOL    HW191910   9.535   4.904   1.803
29021SOL    HW291911   9.510   5.002   1.915
29022SOL     OW91912   9.382   4.839   0.615
29022SOL    HW191913   9.370   4.846   0.709
29022SOL    HW291914   9.477   4.842   0.603
29023SOL     OW91915   0.046   5.135   1.752
29023SOL    HW191916   9.972   5.078   1.732
29023SOL    HW291917   0.007   5.223   1.759
29024SOL     OW91918   9.695   4.164   0.501
29024SOL    HW191919   9.732   4.088   0.456
29024SOL    HW291920   9.641   4.127   0.571
29025SOL     OW91921   9.627   4.265   1.282
29025SOL    HW191922   9.683   4.200   1.325
29025SOL    HW291923   9.623   4.236   1.190
29026SOL     OW91924   9.314   4.807   0.351
29026SOL    HW191925   9.349   4.827   0.437
29026SOL    HW291926   9.313   4.711   0.347
29027SOL     OW91927   9.478   4.296   1.969
29027SOL    HW191928   9.390   4.312   2.003
29027SOL    HW291929   9.466   4.283   1.875
29028SOL     OW91930   9.357   4.146   2.499
29028SOL    HW191931   9.327   4.067   2.454
29028SOL    HW291932   9.444   4.122   2.533
29029SOL     OW91933   9.815   4.936   3.026
29029SOL    HW191934   9.751   5.000   2.996
29029SOL    HW291935   9.871   4.985   3.086
29030SOL     OW91936   0.038   4.603   3.678
29030SOL    HW191937   0.078   4.563   3.756
29030SOL    HW291938   0.086   4.565   3.604
29031SOL     OW91939   9.644   5.153   2.961
29031SOL    HW191940   9.571   5.101   2.928
29031SOL    HW291941   9.673   5.204   2.885
29032SOL     OW91942   9.762   4.221   3.440
29032SOL    HW191943   9.838   4.175   3.405
29032SOL    HW291944   9.687   4.171   3.411
29033SOL     OW91945   9.557   5.178   2.422
29033SOL    HW191946   9.571   5.244   2.490
29033SOL    HW291947   9.507   5.109   2.466
29034SOL     OW91948   9.609   4.855   2.706
29034SOL    HW191949   9.621   4.761   2.724
29034SOL    HW291950   9.571   4.889   2.787
29035SOL     OW91951   9.412   4.414   2.420
29035SOL    HW191952   9.400   4.322   2.445
29035SOL    HW291953   9.408   4.461   2.503
29036SOL     OW91954   9.305   5.351   1.980
29036SOL    HW191955   9.298   5.256   1.989
29036SOL    HW291956   9.222   5.378   1.940
29037SOL     OW91957   9.440   4.466   3.406
29037SOL    HW191958   9.533   4.488   3.414
29037SOL    HW291959   9.401   4.546   3.370
29038SOL     OW91960   0.085   3.685   2.364
29038SOL    HW191961   0.145   3.730   2.424
29038SOL    HW291962   9.999   3.718   2.388
29039SOL     OW91963   9.503   4.649   3.177
29039SOL    HW191964   9.573   4.584   3.169
29039SOL    HW291965   9.480   4.671   3.087
29040SOL     OW91966   9.620   3.981   3.649
29040SOL    HW191967   9.680   4.025   3.709
29040SOL    HW291968   9.537   3.976   3.696
29041SOL     OW91969   9.853   4.461   2.061
29041SOL    HW191970   9.927   4.408   2.092
29041SOL    HW291971   9.795   4.467   2.137
29042SOL     OW91972   9.382   4.576   2.650
29042SOL    HW191973   9.473   4.568   2.679
29042SOL    HW291974   9.346   4.647   2.704
29043SOL     OW91975   9.311   5.584   3.459
29043SOL    HW191976   9.365   5.564   3.535
29043SOL    HW291977   9.347   5.529   3.389
29044SOL     OW91978   0.205   4.076   2.015
29044SOL    HW191979   0.291   4.085   2.056
29044SOL    HW291980   0.176   3.988   2.039
29045SOL     OW91981   9.582   4.663   2.124
29045SOL    HW191982   9.602   4.646   2.032
29045SOL    HW291983   9.605   4.582   2.169
29046SOL     OW91984   9.806   5.010   3.686
29046SOL    HW191985   9.796   5.036   3.594
29046SOL    HW291986   9.717   5.000   3.718
29047SOL     OW91987   9.533   4.071   3.401
29047SOL    HW191988   9.543   4.006   3.331
29047SOL    HW291989   9.549   4.022   3.482
29048SOL     OW91990   9.653   4.438   2.270
29048SOL    HW191991   9.683   4.350   2.293
29048SOL    HW291992   9.572   4.450   2.319
29049SOL     OW91993   9.897   3.776   1.998
29049SOL    HW191994   9.971   3.809   2.049
29049SOL    HW291995   9.911   3.681   1.994
29050SOL     OW91996   0.122   5.179   2.743
29050SOL    HW191997   0.116   5.104   2.684
29050SOL    HW291998   0.076   5.250   2.697
29051SOL     OW91999   9.834   3.798   2.373
29051SOL    HW192000   9.756   3.807   2.428
29051SOL    HW292001   9.833   3.876   2.317
29052SOL     OW92002   9.593   3.735   2.041
29052SOL    HW192003   9.639   3.807   1.996
29052SOL    HW292004   9.661   3.693   2.094
29053SOL     OW92005   0.245   4.021   2.317
29053SOL    HW192006   0.314   4.085   2.331
29053SOL    HW292007   0.263   3.952   2.381
29054SOL     OW92008   9.824   4.881   2.525
29054SOL    HW192009   9.766   4.880   2.601
29054SOL    HW292010   9.766   4.868   2.450
29055SOL     OW92011   9.403   4.249   3.228
29055SOL    HW192012   9.459   4.191   3.280
29055SOL    HW292013   9.412   4.334   3.270
29056SOL     OW92014   9.802   3.992   2.179
29056SOL    HW192015   9.820   3.930   2.108
29056SOL    HW292016   9.775   4.073   2.134
29057SOL     OW92017   9.710   4.472   3.140
29057SOL    HW192018   9.786   4.482   3.197
29057SOL    HW292019   9.709   4.379   3.118
29058SOL     OW92020   9.406   5.425   3.254
29058SOL    HW192021   9.343   5.428   3.182
29058SOL    HW292022   9.492   5.423   3.212
29059SOL     OW92023   9.634   4.853   2.319
29059SOL    HW192024   9.636   4.933   2.266
29059SOL    HW292025   9.620   4.782   2.255
29060SOL     OW92026   9.977   4.298   2.737
29060SOL    HW192027   9.911   4.358   2.702
29060SOL    HW292028   9.980   4.317   2.831
29061SOL     OW92029   9.700   5.255   3.216
29061SOL    HW192030   9.663   5.223   3.134
29061SOL    HW292031   9.795   5.252   3.202
29062SOL     OW92032   9.716   4.489   3.464
29062SOL    HW192033   9.789   4.520   3.410
29062SOL    HW292034   9.729   4.394   3.469
29063SOL     OW92035   9.818   3.824   3.525
29063SOL    HW192036   9.776   3.750   3.481
29063SOL    HW292037   9.745   3.875   3.561
29064SOL     OW92038   9.772   4.672   2.950
29064SOL    HW192039   9.786   4.759   2.987
29064SOL    HW292040   9.766   4.614   3.026
29065SOL     OW92041   9.596   3.909   3.194
29065SOL    HW192042   9.690   3.919   3.179
29065SOL    HW292043   9.578   3.818   3.171
29066SOL     OW92044   9.377   5.016   3.169
29066SOL    HW192045   9.425   4.955   3.225
29066SOL    HW292046   9.353   5.089   3.226
29067SOL     OW92047   9.560   3.808   2.456
29067SOL    HW192048   9.553   3.900   2.430
29067SOL    HW292049   9.573   3.810   2.551
29068SOL     OW92050   9.704   4.652   3.684
29068SOL    HW192051   9.793   4.688   3.684
29068SOL    HW292052   9.705   4.587   3.613
29069SOL     OW92053   9.639   4.577   2.736
29069SOL    HW192054   9.691   4.599   2.813
29069SOL    HW292055   9.701   4.535   2.677
29070SOL     OW92056   9.371   5.017   2.038
29070SOL    HW192057   9.290   5.048   1.997
29070SOL    HW292058   9.348   4.933   2.077
29071SOL     OW92059   9.322   5.527   2.832
29071SOL    HW192060   9.357   5.454   2.782
29071SOL    HW292061   9.398   5.566   2.875
29072SOL     OW92062   9.751   5.289   2.741
29072SOL    HW192063   9.773   5.377   2.709
29072SOL    HW292064   9.822   5.234   2.708
29073SOL     OW92065   9.474   4.281   3.613
29073SOL    HW192066   9.525   4.220   3.559
29073SOL    HW292067   9.443   4.347   3.551
29074SOL     OW92068   0.063   4.299   2.127
29074SOL    HW192069   0.086   4.206   2.118
29074SOL    HW292070   0.089   4.321   2.216
29075SOL     OW92071   9.527   5.254   3.593
29075SOL    HW192072   9.500   5.232   3.683
29075SOL    HW292073   9.581   5.180   3.566
29076SOL     OW92074   9.731   4.210   2.017
29076SOL    HW192075   9.786   4.288   2.017
29076SOL    HW292076   9.642   4.243   2.012
29077SOL     OW92077   9.508   4.859   3.355
29077SOL    HW192078   9.478   4.824   3.439
29077SOL    HW292079   9.511   4.782   3.297
29078SOL     OW92080   9.449   4.955   2.910
29078SOL    HW192081   9.417   4.977   2.997
29078SOL    HW292082   9.377   4.905   2.870
29079SOL     OW92083   9.943   5.294   3.543
29079SOL    HW192084   9.870   5.347   3.513
29079SOL    HW292085   0.010   5.357   3.570
29080SOL     OW92086   9.388   5.516   3.716
29080SOL    HW192087   9.401   5.422   3.729
29080SOL    HW292088   9.457   5.556   3.769
29081SOL     OW92089   9.667   5.072   3.438
29081SOL    HW192090   9.683   5.126   3.360
29081SOL    HW292091   9.619   4.996   3.405
29082SOL     OW92092   9.618   5.084   2.171
29082SOL    HW192093   9.534   5.082   2.125
29082SOL    HW292094   9.600   5.134   2.251
29083SOL     OW92095   9.455   4.762   3.611
29083SOL    HW192096   9.381   4.718   3.654
29083SOL    HW292097   9.532   4.711   3.637
29084SOL     OW92098   9.932   4.033   3.321
29084SOL    HW192099   9.907   4.036   3.229
29084SOL    HW292100   9.894   3.952   3.354
29085SOL     OW92101   9.376   3.977   1.846
29085SOL    HW192102   9.408   3.926   1.771
29085SOL    HW292103   9.378   4.068   1.816
29086SOL     OW92104   9.333   3.826   2.097
29086SOL    HW192105   9.327   3.898   2.034
29086SOL    HW292106   9.427   3.809   2.105
29087SOL     OW92107   9.934   4.521   3.292
29087SOL    HW192108   9.990   4.588   3.252
29087SOL    HW292109   9.990   4.443   3.298
29088SOL     OW92110   9.701   5.418   3.451
29088SOL    HW192111   9.697   5.376   3.365
29088SOL    HW292112   9.636   5.371   3.504
29089SOL     OW92113   9.825   4.462   2.572
29089SOL    HW192114   9.911   4.503   2.561
29089SOL    HW292115   9.811   4.414   2.491
29090SOL     OW92116   9.535   4.991   3.743
29090SOL    HW192117   9.516   4.920   3.682
29090SOL    HW292118   9.454   5.004   3.791
29091SOL     OW92119   9.438   4.933   2.506
29091SOL    HW192120   9.488   4.910   2.584
29091SOL    HW292121   9.489   4.898   2.433
29092SOL     OW92122   9.713   4.196   2.375
29092SOL    HW192123   9.776   4.132   2.342
29092SOL    HW292124   9.671   4.153   2.449
29093SOL     OW92125   9.326   4.760   2.161
29093SOL    HW192126   9.418   4.740   2.144
29093SOL    HW292127   9.286   4.674   2.175
29094SOL     OW92128   9.489   4.386   3.867
29094SOL    HW192129   9.402   4.364   3.901
29094SOL    HW292130   9.487   4.361   3.775
29095SOL     OW92131   9.504   4.014   4.701
29095SOL    HW192132   9.552   3.969   4.771
29095SOL    HW292133   9.418   3.972   4.701
29096SOL     OW92134   9.301   4.109   4.412
29096SOL    HW192135   9.298   4.050   4.488
29096SOL    HW292136   9.276   4.054   4.338
29097SOL     OW92137   9.800   5.084   4.866
29097SOL    HW192138   9.744   5.134   4.926
29097SOL    HW292139   9.882   5.072   4.914
29098SOL     OW92140   0.108   4.516   5.574
29098SOL    HW192141   0.088   4.610   5.575
29098SOL    HW292142   0.169   4.507   5.501
29099SOL     OW92143   9.580   5.291   4.809
29099SOL    HW192144   9.552   5.205   4.779
29099SOL    HW292145   9.663   5.307   4.763
29100SOL     OW92146   9.688   4.028   5.173
29100SOL    HW192147   9.772   4.068   5.191
29100SOL    HW292148   9.683   3.953   5.234
29101SOL     OW92149   9.528   5.407   4.222
29101SOL    HW192150   9.551   5.483   4.275
29101SOL    HW292151   9.603   5.395   4.164
29102SOL     OW92152   9.590   4.817   4.624
29102SOL    HW192153   9.605   4.723   4.634
29102SOL    HW292154   9.630   4.856   4.702
29103SOL     OW92155   9.422   4.369   4.312
29103SOL    HW192156   9.380   4.289   4.344
29103SOL    HW292157   9.404   4.434   4.380
29104SOL     OW92158   9.385   5.267   3.842
29104SOL    HW192159   9.350   5.181   3.866
29104SOL    HW292160   9.358   5.324   3.914
29105SOL     OW92161   9.499   4.490   5.290
29105SOL    HW192162   9.594   4.500   5.302
29105SOL    HW292163   9.462   4.573   5.321
29106SOL     OW92164   9.835   5.178   4.420
29106SOL    HW192165   9.783   5.099   4.431
29106SOL    HW292166   9.841   5.190   4.325
29107SOL     OW92167   0.086   3.736   4.315
29107SOL    HW192168   0.129   3.812   4.275
29107SOL    HW292169   9.995   3.744   4.289
29108SOL     OW92170   9.480   4.679   4.953
29108SOL    HW192171   9.565   4.637   4.962
29108SOL    HW292172   9.462   4.677   4.859
29109SOL     OW92173   9.606   3.985   5.559
29109SOL    HW192174   9.688   3.940   5.579
29109SOL    HW292175   9.605   4.060   5.619
29110SOL     OW92176   9.847   4.463   4.003
29110SOL    HW192177   9.803   4.542   3.969
29110SOL    HW292178   9.800   4.442   4.083
29111SOL     OW92179   9.359   4.568   4.503
29111SOL    HW192180   9.447   4.567   4.540
29111SOL    HW292181   9.314   4.638   4.550
29112SOL     OW92182   9.395   5.657   5.294
29112SOL    HW192183   9.398   5.617   5.381
29112SOL    HW292184   9.328   5.609   5.247
29113SOL     OW92185   0.244   4.036   3.961
29113SOL    HW192186   0.312   4.103   3.949
29113SOL    HW292187   0.186   4.047   3.886
29114SOL     OW92188   9.809   3.948   4.639
29114SOL    HW192189   9.858   3.927   4.718
29114SOL    HW292190   9.830   4.040   4.621
29115SOL     OW92191   9.673   5.602   4.633
29115SOL    HW192192   9.715   5.516   4.638
29115SOL    HW292193   9.745   5.665   4.637
29116SOL     OW92194   9.597   4.641   3.937
29116SOL    HW192195   9.635   4.656   3.850
29116SOL    HW292196   9.557   4.554   3.931
29117SOL     OW92197   9.858   4.940   5.460
29117SOL    HW192198   9.815   4.942   5.374
29117SOL    HW292199   9.787   4.953   5.523
29118SOL     OW92200   9.763   5.436   4.055
29118SOL    HW192201   9.806   5.496   4.117
29118SOL    HW292202   9.803   5.456   3.970
29119SOL     OW92203   9.699   4.384   4.222
29119SOL    HW192204   9.729   4.295   4.239
29119SOL    HW292205   9.606   4.383   4.243
29120SOL     OW92206   9.861   3.846   3.810
29120SOL    HW192207   9.937   3.814   3.857
29120SOL    HW292208   9.874   3.817   3.720
29121SOL     OW92209   0.083   5.173   4.554
29121SOL    HW192210   0.126   5.097   4.516
29121SOL    HW292211   9.998   5.177   4.511
29122SOL     OW92212   9.835   3.782   4.214
29122SOL    HW192213   9.750   3.773   4.258
29122SOL    HW292214   9.824   3.856   4.155
29123SOL     OW92215   9.598   3.747   3.884
29123SOL    HW192216   9.685   3.778   3.857
29123SOL    HW292217   9.616   3.684   3.954
29124SOL     OW92218   0.241   3.941   4.218
29124SOL    HW192219   0.255   3.979   4.131
29124SOL    HW292220   0.325   3.903   4.241
29125SOL     OW92221   9.670   4.960   4.402
29125SOL    HW192222   9.639   4.907   4.476
29125SOL    HW292223   9.682   4.897   4.331
29126SOL     OW92224   9.431   4.303   5.102
29126SOL    HW192225   9.521   4.284   5.075
29126SOL    HW292226   9.439   4.377   5.163
29127SOL     OW92227   9.896   3.862   4.891
29127SOL    HW192228   9.911   3.768   4.894
29127SOL    HW292229   9.801   3.871   4.902
29128SOL     OW92230   9.787   3.995   4.036
29128SOL    HW192231   9.822   3.941   3.965
29128SOL    HW292232   9.759   4.076   3.993
29129SOL     OW92233   9.721   4.542   4.951
29129SOL    HW192234   9.783   4.574   5.017
29129SOL    HW292235   9.715   4.448   4.968
29130SOL     OW92236   9.444   5.263   5.051
29130SOL    HW192237   9.481   5.289   4.967
29130SOL    HW292238   9.520   5.254   5.108
29131SOL     OW92239   9.661   4.805   4.166
29131SOL    HW192240   9.603   4.878   4.141
29131SOL    HW292241   9.647   4.740   4.098
29132SOL     OW92242   9.864   4.221   4.635
29132SOL    HW192243   9.862   4.288   4.568
29132SOL    HW292244   9.935   4.246   4.694
29133SOL     OW92245   9.772   4.503   5.346
29133SOL    HW192246   9.811   4.554   5.275
29133SOL    HW292247   9.840   4.440   5.370
29134SOL     OW92248   9.769   3.823   5.344
29134SOL    HW192249   9.744   3.730   5.338
29134SOL    HW292250   9.795   3.834   5.436
29135SOL     OW92251   9.907   4.636   4.728
29135SOL    HW192252   9.950   4.713   4.767
29135SOL    HW292253   9.847   4.606   4.796
29136SOL     OW92254   9.619   3.901   4.931
29136SOL    HW192255   9.626   3.938   5.019
29136SOL    HW292256   9.616   3.807   4.945
29137SOL     OW92257   9.312   5.035   4.975
29137SOL    HW192258   9.333   4.962   5.033
29137SOL    HW292259   9.362   5.108   5.010
29138SOL     OW92260   9.595   3.757   4.345
29138SOL    HW192261   9.580   3.851   4.361
29138SOL    HW292262   9.616   3.721   4.432
29139SOL     OW92263   9.642   4.658   5.540
29139SOL    HW192264   9.679   4.643   5.627
29139SOL    HW292265   9.701   4.611   5.480
29140SOL     OW92266   9.610   4.538   4.633
29140SOL    HW192267   9.691   4.530   4.584
29140SOL    HW292268   9.601   4.455   4.679
29141SOL     OW92269   9.607   4.264   4.717
29141SOL    HW192270   9.568   4.178   4.703
29141SOL    HW292271   9.696   4.256   4.681
29142SOL     OW92272   9.308   5.005   3.896
29142SOL    HW192273   9.217   4.995   3.867
29142SOL    HW292274   9.327   4.926   3.946
29143SOL     OW92275   9.403   5.536   4.676
29143SOL    HW192276   9.383   5.447   4.647
29143SOL    HW292277   9.498   5.542   4.671
29144SOL     OW92278   9.797   5.360   4.637
29144SOL    HW192279   9.888   5.378   4.663
29144SOL    HW292280   9.805   5.295   4.568
29145SOL     OW92281   9.361   4.330   4.835
29145SOL    HW192282   9.439   4.318   4.780
29145SOL    HW292283   9.395   4.333   4.924
29146SOL     OW92284   9.444   4.274   5.446
29146SOL    HW192285   9.488   4.205   5.397
29146SOL    HW292286   9.458   4.353   5.395
29147SOL     OW92287   0.122   4.425   3.995
29147SOL    HW192288   0.140   4.408   4.088
29147SOL    HW292289   0.027   4.434   3.991
29148SOL     OW92290   9.554   5.228   5.500
29148SOL    HW192291   9.636   5.269   5.475
29148SOL    HW292292   9.579   5.144   5.539
29149SOL     OW92293   9.721   4.227   3.905
29149SOL    HW192294   9.786   4.295   3.922
29149SOL    HW292295   9.638   4.275   3.894
29150SOL     OW92296   9.368   4.826   5.158
29150SOL    HW192297   9.411   4.803   5.241
29150SOL    HW292298   9.416   4.777   5.092
29151SOL     OW92299   9.437   5.069   4.725
29151SOL    HW192300   9.396   5.029   4.802
29151SOL    HW292301   9.408   5.014   4.652
29152SOL     OW92302   9.411   5.559   5.551
29152SOL    HW192303   9.359   5.482   5.573
29152SOL    HW292304   9.483   5.559   5.614
29153SOL     OW92305   9.578   4.024   4.425
29153SOL    HW192306   9.498   4.076   4.414
29153SOL    HW292307   9.587   4.014   4.520
29154SOL     OW92308   9.727   4.986   5.226
29154SOL    HW192309   9.794   5.043   5.188
29154SOL    HW292310   9.652   5.043   5.240
29155SOL     OW92311   9.809   5.173   4.126
29155SOL    HW192312   9.878   5.134   4.074
29155SOL    HW292313   9.801   5.262   4.093
29156SOL     OW92314   9.550   5.066   4.105
29156SOL    HW192315   9.541   5.068   4.010
29156SOL    HW292316   9.641   5.093   4.121
29157SOL     OW92317   9.413   4.724   5.411
29157SOL    HW192318   9.341   4.719   5.473
29157SOL    HW292319   9.492   4.712   5.464
29158SOL     OW92320   9.964   3.977   5.226
29158SOL    HW192321   9.971   3.949   5.135
29158SOL    HW292322   9.908   3.911   5.267
29159SOL     OW92323   9.371   4.059   3.754
29159SOL    HW192324   9.300   4.044   3.691
29159SOL    HW292325   9.406   4.145   3.731
29160SOL     OW92326   9.373   3.896   3.984
29160SOL    HW192327   9.367   3.960   3.913
29160SOL    HW292328   9.457   3.852   3.970
29161SOL     OW92329   9.906   4.616   5.135
29161SOL    HW192330   9.956   4.697   5.125
29161SOL    HW292331   9.973   4.547   5.139
29162SOL     OW92332   9.817   4.439   4.471
29162SOL    HW192333   9.904   4.479   4.469
29162SOL    HW292334   9.790   4.437   4.379
29163SOL     OW92335   9.630   4.982   5.622
29163SOL    HW192336   9.585   4.899   5.609
29163SOL    HW292337   9.622   4.999   5.716
29164SOL     OW92338   0.004   5.178   5.484
29164SOL    HW192339   9.965   5.092   5.471
29164SOL    HW292340   9.933   5.240   5.465
29165SOL     OW92341   9.794   4.128   4.278
29165SOL    HW192342   9.793   4.078   4.197
29165SOL    HW292343   9.730   4.085   4.334
29166SOL     OW92344   9.676   4.264   4.988
29166SOL    HW192345   9.700   4.177   5.019
29166SOL    HW292346   9.669   4.254   4.893
29167SOL     OW92347   9.361   4.771   4.032
29167SOL    HW192348   9.445   4.753   3.991
29167SOL    HW292349   9.330   4.685   4.062
29168SOL     OW92350   9.531   4.215   5.703
29168SOL    HW192351   9.555   4.283   5.766
29168SOL    HW292352   9.509   4.263   5.623
29169SOL     OW92353   9.498   4.069   6.637
29169SOL    HW192354   9.553   4.018   6.696
29169SOL    HW292355   9.434   4.007   6.603
29170SOL     OW92356   9.270   4.078   6.288
29170SOL    HW192357   9.251   4.014   6.220
29170SOL    HW292358   9.366   4.073   6.298
29171SOL     OW92359   9.780   4.948   6.726
29171SOL    HW192360   9.786   4.853   6.729
29171SOL    HW292361   9.847   4.978   6.788
29172SOL     OW92362   0.127   4.492   7.362
29172SOL    HW192363   0.166   4.487   7.449
29172SOL    HW292364   0.121   4.401   7.333
29173SOL     OW92365   9.506   5.416   6.066
29173SOL    HW192366   9.525   5.490   6.123
29173SOL    HW292367   9.588   5.401   6.019
29174SOL     OW92368   9.550   5.146   6.136
29174SOL    HW192369   9.521   5.237   6.132
29174SOL    HW292370   9.484   5.102   6.190
29175SOL     OW92371   9.588   4.753   6.602
29175SOL    HW192372   9.611   4.670   6.560
29175SOL    HW292373   9.544   4.728   6.683
29176SOL     OW92374   9.460   4.416   6.139
29176SOL    HW192375   9.495   4.332   6.169
29176SOL    HW292376   9.534   4.459   6.097
29177SOL     OW92377   9.293   5.345   5.672
29177SOL    HW192378   9.333   5.261   5.653
29177SOL    HW292379   9.286   5.348   5.767
29178SOL     OW92380   9.471   4.481   7.115
29178SOL    HW192381   9.563   4.469   7.139
29178SOL    HW292382   9.437   4.541   7.182
29179SOL     OW92383   9.888   5.126   6.337
29179SOL    HW192384   9.844   5.042   6.329
29179SOL    HW292385   9.907   5.152   6.247
29180SOL     OW92386   0.067   3.751   6.034
29180SOL    HW192387   0.109   3.831   6.067
29180SOL    HW292388   9.982   3.749   6.077
29181SOL     OW92389   9.475   4.680   6.861
29181SOL    HW192390   9.559   4.635   6.861
29181SOL    HW292391   9.410   4.610   6.872
29182SOL     OW92392   9.380   4.572   6.356
29182SOL    HW192393   9.401   4.524   6.276
29182SOL    HW292394   9.454   4.556   6.414
29183SOL     OW92395   9.372   5.585   7.046
29183SOL    HW192396   9.383   5.552   7.136
29183SOL    HW292397   9.425   5.664   7.043
29184SOL     OW92398   0.239   4.066   5.815
29184SOL    HW192399   0.224   4.158   5.794
29184SOL    HW292400   0.279   4.030   5.736
29185SOL     OW92401   9.763   3.961   6.475
29185SOL    HW192402   9.804   3.966   6.561
29185SOL    HW292403   9.813   4.023   6.421
29186SOL     OW92404   9.677   5.556   6.466
29186SOL    HW192405   9.737   5.483   6.479
29186SOL    HW292406   9.729   5.634   6.486
29187SOL     OW92407   9.582   4.713   5.835
29187SOL    HW192408   9.663   4.764   5.824
29187SOL    HW292409   9.607   4.639   5.890
29188SOL     OW92410   9.769   4.996   7.311
29188SOL    HW192411   9.720   5.019   7.232
29188SOL    HW292412   9.702   4.984   7.379
29189SOL     OW92413   9.387   4.036   7.137
29189SOL    HW192414   9.401   4.113   7.083
29189SOL    HW292415   9.471   3.989   7.133
29190SOL     OW92416   9.746   5.413   5.933
29190SOL    HW192417   9.796   5.486   5.970
29190SOL    HW292418   9.803   5.377   5.865
29191SOL     OW92419   9.555   5.543   6.782
29191SOL    HW192420   9.600   5.463   6.810
29191SOL    HW292421   9.514   5.521   6.699
29192SOL     OW92422   9.851   3.850   5.608
29192SOL    HW192423   9.895   3.906   5.672
29192SOL    HW292424   9.903   3.770   5.606
29193SOL     OW92425   0.154   5.159   6.469
29193SOL    HW192426   0.182   5.158   6.378
29193SOL    HW292427   0.069   5.115   6.468
29194SOL     OW92428   9.805   3.770   6.110
29194SOL    HW192429   9.730   3.755   6.167
29194SOL    HW292430   9.784   3.850   6.062
29195SOL     OW92431   9.609   3.780   5.832
29195SOL    HW192432   9.656   3.854   5.868
29195SOL    HW292433   9.664   3.704   5.852
29196SOL     OW92434   0.217   3.980   6.077
29196SOL    HW192435   0.230   4.017   5.989
29196SOL    HW292436   0.291   3.922   6.089
29197SOL     OW92437   9.744   4.884   6.346
29197SOL    HW192438   9.800   4.808   6.359
29197SOL    HW292439   9.697   4.866   6.265
29198SOL     OW92440   9.445   4.251   6.969
29198SOL    HW192441   9.535   4.241   6.940
29198SOL    HW292442   9.444   4.332   7.020
29199SOL     OW92443   9.877   3.971   6.727
29199SOL    HW192444   9.947   3.958   6.791
29199SOL    HW292445   9.796   3.962   6.778
29200SOL     OW92446   9.739   3.992   5.964
29200SOL    HW192447   9.824   4.008   5.924
29200SOL    HW292448   9.723   4.069   6.019
29201SOL     OW92449   9.700   4.532   6.847
29201SOL    HW192450   9.776   4.554   6.901
29201SOL    HW292451   9.701   4.436   6.843
29202SOL     OW92452   9.386   5.319   6.954
29202SOL    HW192453   9.372   5.413   6.969
29202SOL    HW292454   9.478   5.312   6.928
29203SOL     OW92455   9.604   4.801   6.121
29203SOL    HW192456   9.600   4.850   6.039
29203SOL    HW292457   9.630   4.713   6.095
29204SOL     OW92458   9.655   5.307   6.894
29204SOL    HW192459   9.712   5.233   6.874
29204SOL    HW292460   9.682   5.336   6.981
29205SOL     OW92461   9.735   4.427   7.187
29205SOL    HW192462   9.793   4.482   7.133
29205SOL    HW292463   9.770   4.338   7.177
29206SOL     OW92464   9.921   4.683   6.604
29206SOL    HW192465   9.962   4.655   6.523
29206SOL    HW292466   9.919   4.605   6.659
29207SOL     OW92467   9.628   3.930   6.847
29207SOL    HW192468   9.648   3.942   6.940
29207SOL    HW292469   9.636   3.836   6.833
29208SOL     OW92470   9.327   5.061   6.865
29208SOL    HW192471   9.378   5.005   6.924
29208SOL    HW292472   9.350   5.150   6.892
29209SOL     OW92473   9.553   3.769   6.229
29209SOL    HW192474   9.538   3.864   6.237
29209SOL    HW292475   9.571   3.740   6.318
29210SOL     OW92476   9.624   4.550   7.408
29210SOL    HW192477   9.689   4.572   7.475
29210SOL    HW292478   9.674   4.508   7.338
29211SOL     OW92479   9.621   4.506   6.480
29211SOL    HW192480   9.653   4.455   6.406
29211SOL    HW292481   9.635   4.450   6.556
29212SOL     OW92482   9.692   4.258   6.590
29212SOL    HW192483   9.625   4.190   6.593
29212SOL    HW292484   9.711   4.269   6.497
29213SOL     OW92485   9.305   5.057   5.808
29213SOL    HW192486   9.220   5.085   5.772
29213SOL    HW292487   9.295   4.963   5.822
29214SOL     OW92488   9.417   5.494   6.538
29214SOL    HW192489   9.382   5.425   6.482
29214SOL    HW292490   9.504   5.512   6.503
29215SOL     OW92491   9.861   5.356   6.499
29215SOL    HW192492   9.949   5.380   6.528
29215SOL    HW292493   9.874   5.279   6.444
29216SOL     OW92494   9.361   4.303   6.707
29216SOL    HW192495   9.403   4.234   6.655
29216SOL    HW292496   9.396   4.292   6.795
29217SOL     OW92497   9.479   5.257   7.309
29217SOL    HW192498   9.465   5.352   7.304
29217SOL    HW292499   9.459   5.235   7.400
29218SOL     OW92500   9.416   4.864   7.066
29218SOL    HW192501   9.432   4.816   7.147
29218SOL    HW292502   9.440   4.803   6.996
29219SOL     OW92503   9.430   5.021   6.601
29219SOL    HW192504   9.389   5.044   6.684
29219SOL    HW292505   9.374   4.953   6.564
29220SOL     OW92506   9.957   5.364   7.157
29220SOL    HW192507   9.862   5.373   7.164
29220SOL    HW292508   9.977   5.281   7.200
29221SOL     OW92509   9.547   4.041   6.293
29221SOL    HW192510   9.596   4.103   6.240
29221SOL    HW292511   9.602   4.027   6.371
29222SOL     OW92512   9.587   5.079   7.122
29222SOL    HW192513   9.537   5.133   7.183
29222SOL    HW292514   9.529   5.006   7.100
29223SOL     OW92515   9.942   5.183   6.057
29223SOL    HW192516   9.973   5.143   5.976
29223SOL    HW292517   9.864   5.232   6.031
29224SOL     OW92518   9.567   5.018   5.893
29224SOL    HW192519   9.478   5.041   5.865
29224SOL    HW292520   9.579   5.066   5.975
29225SOL     OW92521   9.441   4.740   7.319
29225SOL    HW192522   9.357   4.716   7.359
29225SOL    HW292523   9.504   4.678   7.357
29226SOL     OW92524   9.324   4.034   5.657
29226SOL    HW192525   9.260   4.099   5.625
29226SOL    HW292526   9.399   4.087   5.685
29227SOL     OW92527   9.348   3.856   5.872
29227SOL    HW192528   9.331   3.913   5.797
29227SOL    HW292529   9.441   3.836   5.867
29228SOL     OW92530   9.911   4.560   7.022
29228SOL    HW192531   9.973   4.625   7.054
29228SOL    HW292532   9.966   4.486   6.994
29229SOL     OW92533   9.678   5.395   7.160
29229SOL    HW192534   9.622   5.470   7.180
29229SOL    HW292535   9.635   5.321   7.202
29230SOL     OW92536   9.544   4.964   7.480
29230SOL    HW192537   9.508   4.893   7.427
29230SOL    HW292538   9.470   4.995   7.532
29231SOL     OW92539   9.391   4.938   6.258
29231SOL    HW192540   9.371   4.886   6.336
29231SOL    HW292541   9.455   4.886   6.210
29232SOL     OW92542   0.011   5.116   7.272
29232SOL    HW192543   9.928   5.069   7.284
29232SOL    HW292544   0.071   5.075   7.335
29233SOL     OW92545   9.708   4.249   6.875
29233SOL    HW192546   9.759   4.179   6.915
29233SOL    HW292547   9.723   4.239   6.781
29234SOL     OW92548   9.320   4.783   5.893
29234SOL    HW192549   9.411   4.778   5.864
29234SOL    HW292550   9.297   4.693   5.918
29235SOL     OW92551   9.467   4.343   7.513
29235SOL    HW192552   9.453   4.382   7.600
29235SOL    HW292553   9.514   4.411   7.464
29236SOL     OW92554   9.502   4.026   8.453
29236SOL    HW192555   9.540   3.988   8.533
29236SOL    HW292556   9.420   3.979   8.440
29237SOL     OW92557   9.309   4.124   8.095
29237SOL    HW192558   9.228   4.144   8.142
29237SOL    HW292559   9.287   4.050   8.038
29238SOL     OW92560   9.784   4.924   8.545
29238SOL    HW192561   9.747   5.009   8.520
29238SOL    HW292562   9.850   4.945   8.610
29239SOL     OW92563   0.061   4.533   9.314
29239SOL    HW192564   0.136   4.497   9.362
29239SOL    HW292565   0.061   4.485   9.232
29240SOL     OW92566   9.662   5.167   8.488
29240SOL    HW192567   9.575   5.156   8.450
29240SOL    HW292568   9.709   5.222   8.426
29241SOL     OW92569   9.791   4.115   8.953
29241SOL    HW192570   9.876   4.072   8.950
29241SOL    HW292571   9.742   4.067   9.018
29242SOL     OW92572   9.555   4.828   8.392
29242SOL    HW192573   9.564   4.734   8.378
29242SOL    HW292574   9.629   4.852   8.449
29243SOL     OW92575   9.428   4.366   8.009
29243SOL    HW192576   9.390   4.282   8.033
29243SOL    HW292577   9.404   4.424   8.081
29244SOL     OW92578   9.281   5.305   7.523
29244SOL    HW192579   9.318   5.264   7.601
29244SOL    HW292580   9.279   5.399   7.543
29245SOL     OW92581   9.488   4.472   9.042
29245SOL    HW192582   9.581   4.496   9.035
29245SOL    HW292583   9.445   4.553   9.069
29246SOL     OW92584   9.472   4.685   8.716
29246SOL    HW192585   9.558   4.643   8.708
29246SOL    HW292586   9.425   4.661   8.636
29247SOL     OW92587   9.643   3.987   9.219
29247SOL    HW192588   9.724   3.987   9.270
29247SOL    HW292589   9.576   3.961   9.282
29248SOL     OW92590   9.831   4.461   7.731
29248SOL    HW192591   9.921   4.431   7.742
29248SOL    HW292592   9.787   4.435   7.812
29249SOL     OW92593   9.357   4.538   8.214
29249SOL    HW192594   9.444   4.543   8.254
29249SOL    HW292595   9.302   4.591   8.271
29250SOL     OW92596   9.413   5.600   9.043
29250SOL    HW192597   9.430   5.580   9.135
29250SOL    HW292598   9.330   5.557   9.023
29251SOL     OW92599   0.211   4.040   7.743
29251SOL    HW192600   0.280   4.084   7.693
29251SOL    HW292601   0.257   4.001   7.817
29252SOL     OW92602   9.797   3.937   8.378
29252SOL    HW192603   9.814   3.949   8.471
29252SOL    HW292604   9.812   4.023   8.339
29253SOL     OW92605   9.645   5.548   8.386
29253SOL    HW192606   9.699   5.476   8.355
29253SOL    HW292607   9.696   5.627   8.366
29254SOL     OW92608   9.655   4.678   7.731
29254SOL    HW192609   9.729   4.617   7.731
29254SOL    HW292610   9.578   4.623   7.740
29255SOL     OW92611   9.748   4.936   9.195
29255SOL    HW192612   9.723   4.961   9.106
29255SOL    HW292613   9.686   4.983   9.251
29256SOL     OW92614   9.478   3.966   8.997
29256SOL    HW192615   9.402   4.019   9.022
29256SOL    HW292616   9.538   3.972   9.071
29257SOL     OW92617   9.557   5.504   8.647
29257SOL    HW192618   9.630   5.455   8.685
29257SOL    HW292619   9.581   5.515   8.555
29258SOL     OW92620   9.701   4.379   7.957
29258SOL    HW192621   9.730   4.289   7.975
29258SOL    HW292622   9.607   4.378   7.976
29259SOL     OW92623   0.118   5.081   8.292
29259SOL    HW192624   0.172   5.135   8.234
29259SOL    HW292625   0.032   5.080   8.250
29260SOL     OW92626   9.822   3.667   7.909
29260SOL    HW192627   9.775   3.710   7.980
29260SOL    HW292628   9.903   3.717   7.900
29261SOL     OW92629   9.866   4.945   8.187
29261SOL    HW192630   9.787   4.912   8.230
29261SOL    HW292631   9.841   5.031   8.153
29262SOL     OW92632   9.427   4.306   8.830
29262SOL    HW192633   9.517   4.286   8.806
29262SOL    HW292634   9.434   4.368   8.903
29263SOL     OW92635   9.828   3.974   8.649
29263SOL    HW192636   9.892   3.946   8.714
29263SOL    HW292637   9.743   3.957   8.689
29264SOL     OW92638   9.756   3.955   7.804
29264SOL    HW192639   9.846   3.925   7.815
29264SOL    HW292640   9.727   3.913   7.723
29265SOL     OW92641   9.709   4.546   8.684
29265SOL    HW192642   9.784   4.566   8.740
29265SOL    HW292643   9.694   4.452   8.697
29266SOL     OW92644   9.423   5.304   8.804
29266SOL    HW192645   9.422   5.382   8.749
29266SOL    HW292646   9.515   5.277   8.806
29267SOL     OW92647   9.845   4.226   8.339
29267SOL    HW192648   9.866   4.287   8.268
29267SOL    HW292649   9.912   4.244   8.406
29268SOL     OW92650   9.682   5.219   8.757
29268SOL    HW192651   9.677   5.197   8.664
29268SOL    HW292652   9.775   5.235   8.773
29269SOL     OW92653   9.766   4.503   9.041
29269SOL    HW192654   9.821   4.548   8.977
29269SOL    HW292655   9.795   4.412   9.038
29270SOL     OW92656   9.801   3.760   9.121
29270SOL    HW192657   9.760   3.682   9.083
29270SOL    HW292658   9.727   3.818   9.143
29271SOL     OW92659   9.835   4.659   8.455
29271SOL    HW192660   9.842   4.752   8.476
29271SOL    HW292661   9.800   4.619   8.535
29272SOL     OW92662   9.556   3.922   8.726
29272SOL    HW192663   9.547   3.933   8.820
29272SOL    HW292664   9.570   3.828   8.713
29273SOL     OW92665   9.358   5.047   8.716
29273SOL    HW192666   9.379   4.985   8.786
29273SOL    HW292667   9.373   5.133   8.754
29274SOL     OW92668   9.630   3.769   8.100
29274SOL    HW192669   9.613   3.863   8.114
29274SOL    HW292670   9.641   3.733   8.188
29275SOL     OW92671   9.677   4.673   9.254
29275SOL    HW192672   9.716   4.758   9.237
29275SOL    HW292673   9.719   4.613   9.192
29276SOL     OW92674   9.598   4.551   8.353
29276SOL    HW192675   9.691   4.575   8.361
29276SOL    HW292676   9.594   4.461   8.384
29277SOL     OW92677   9.595   4.283   8.435
29277SOL    HW192678   9.557   4.195   8.439
29277SOL    HW292679   9.683   4.268   8.400
29278SOL     OW92680   9.344   5.046   7.651
29278SOL    HW192681   9.250   5.037   7.665
29278SOL    HW292682   9.383   5.020   7.735
29279SOL     OW92683   9.376   5.474   8.366
29279SOL    HW192684   9.372   5.396   8.311
29279SOL    HW292685   9.468   5.498   8.367
29280SOL     OW92686   9.800   5.330   8.317
29280SOL    HW192687   9.891   5.352   8.336
29280SOL    HW292688   9.803   5.287   8.232
29281SOL     OW92689   9.352   4.346   8.566
29281SOL    HW192690   9.431   4.334   8.514
29281SOL    HW292691   9.382   4.339   8.657
29282SOL     OW92692   9.494   4.269   9.231
29282SOL    HW192693   9.579   4.229   9.217
29282SOL    HW292694   9.486   4.334   9.161
29283SOL     OW92695   0.056   4.296   7.763
29283SOL    HW192696   0.061   4.222   7.702
29283SOL    HW292697   0.073   4.258   7.849
29284SOL     OW92698   9.525   5.272   9.169
29284SOL    HW192699   9.509   5.348   9.224
29284SOL    HW292700   9.552   5.203   9.230
29285SOL     OW92701   9.797   4.253   7.550
29285SOL    HW192702   9.884   4.216   7.542
29285SOL    HW292703   9.807   4.328   7.608
29286SOL     OW92704   9.416   4.859   8.918
29286SOL    HW192705   9.422   4.810   9.000
29286SOL    HW292706   9.436   4.795   8.850
29287SOL     OW92707   9.393   5.058   8.448
29287SOL    HW192708   9.384   5.049   8.543
29287SOL    HW292709   9.435   4.977   8.420
29288SOL     OW92710   0.015   5.277   9.081
29288SOL    HW192711   0.013   5.372   9.092
29288SOL    HW292712   0.022   5.263   8.987
29289SOL     OW92713   9.457   5.510   9.299
29289SOL    HW192714   9.409   5.450   9.357
29289SOL    HW292715   9.512   5.562   9.359
29290SOL     OW92716   9.564   4.030   8.172
29290SOL    HW192717   9.480   4.070   8.149
29290SOL    HW292718   9.564   4.028   8.267
29291SOL     OW92719   9.651   5.015   8.952
29291SOL    HW192720   9.658   5.083   8.885
29291SOL    HW292721   9.572   4.967   8.930
29292SOL     OW92722   9.417   4.719   9.157
29292SOL    HW192723   9.345   4.723   9.221
29292SOL    HW292724   9.496   4.711   9.211
29293SOL     OW92725   0.014   3.948   8.970
29293SOL    HW192726   0.108   3.948   8.953
29293SOL    HW292727   9.998   3.866   9.017
29294SOL     OW92728   9.464   3.847   7.792
29294SOL    HW192729   9.531   3.871   7.856
29294SOL    HW292730   9.513   3.833   7.711
29295SOL     OW92731   9.937   4.575   8.831
29295SOL    HW192732   9.995   4.638   8.788
29295SOL    HW292733   9.982   4.490   8.820
29296SOL     OW92734   9.657   5.464   9.005
29296SOL    HW192735   9.574   5.511   8.996
29296SOL    HW292736   9.634   5.381   9.046
29297SOL     OW92737   9.896   4.427   8.151
29297SOL    HW192738   9.974   4.443   8.097
29297SOL    HW292739   9.823   4.430   8.089
29298SOL     OW92740   9.573   5.073   9.362
29298SOL    HW192741   9.482   5.050   9.379
29298SOL    HW292742   9.613   5.079   9.449
29299SOL     OW92743   9.360   4.891   8.195
29299SOL    HW192744   9.433   4.862   8.249
29299SOL    HW292745   9.401   4.946   8.128
29300SOL     OW92746   9.986   5.062   9.260
29300SOL    HW192747   9.913   5.008   9.233
29300SOL    HW292748   9.988   5.133   9.196
29301SOL     OW92749   9.779   4.123   8.016
29301SOL    HW192750   9.770   4.066   7.940
29301SOL    HW292751   9.716   4.089   8.080
29302SOL     OW92752   9.689   4.272   8.747
29302SOL    HW192753   9.731   4.220   8.815
29302SOL    HW292754   9.716   4.230   8.665
29303SOL     OW92755   9.291   4.745   7.817
29303SOL    HW192756   9.355   4.812   7.840
29303SOL    HW292757   9.344   4.670   7.788
29304SOL     OW92758   9.484   4.378   9.483
29304SOL    HW192759   9.401   4.348   9.520
29304SOL    HW292760   9.481   4.351   9.391
29305SOL     OW92761   9.517   5.480   9.775
29305SOL    HW192762   9.544   5.501   9.864
29305SOL    HW292763   9.599   5.478   9.725
29306SOL     OW92764   9.465   5.218   9.849
29306SOL    HW192765   9.479   5.307   9.817
29306SOL    HW292766   9.427   5.231   9.936
29307SOL     OW92767   9.454   4.337   9.839
29307SOL    HW192768   9.444   4.242   9.841
29307SOL    HW292769   9.471   4.361   9.930
29308SOL     OW92770   9.342   5.321   9.457
29308SOL    HW192771   9.324   5.228   9.472
29308SOL    HW292772   9.300   5.366   9.530
29309SOL     OW92773   0.139   3.762   9.841
29309SOL    HW192774   0.163   3.850   9.811
29309SOL    HW292775   0.045   3.757   9.827
29310SOL     OW92776   9.883   4.424   9.534
29310SOL    HW192777   9.901   4.499   9.477
29310SOL    HW292778   9.822   4.459   9.599
29311SOL     OW92779   0.217   4.098   9.524
29311SOL    HW192780   0.306   4.123   9.498
29311SOL    HW292781   0.172   4.081   9.441
29312SOL     OW92782   9.605   5.503   0.131
29312SOL    HW192783   9.567   5.457   0.205
29312SOL    HW292784   9.695   5.521   0.158
29313SOL     OW92785   9.580   4.644   9.515
29313SOL    HW192786   9.620   4.656   9.429
29313SOL    HW292787   9.551   4.552   9.514
29314SOL     OW92788   9.768   5.501   9.651
29314SOL    HW192789   9.813   5.559   9.713
29314SOL    HW292790   9.839   5.450   9.611
29315SOL     OW92791   9.711   4.426   9.759
29315SOL    HW192792   9.741   4.338   9.782
29315SOL    HW292793   9.616   4.420   9.759
29316SOL     OW92794   9.863   3.866   9.369
29316SOL    HW192795   9.939   3.844   9.423
29316SOL    HW292796   9.869   3.806   9.294
29317SOL     OW92797   9.863   3.807   9.814
29317SOL    HW192798   9.776   3.808   9.853
29317SOL    HW292799   9.858   3.872   9.743
29318SOL     OW92800   9.590   3.799   9.433
29318SOL    HW192801   9.685   3.805   9.426
29318SOL    HW292802   9.574   3.766   9.521
29319SOL     OW92803   0.230   4.025   9.796
29319SOL    HW192804   0.246   4.054   9.706
29319SOL    HW292805   0.317   4.022   9.835
29320SOL     OW92806   9.756   4.926   0.096
29320SOL    HW192807   9.689   4.973   0.146
29320SOL    HW292808   9.719   4.916   0.009
29321SOL     OW92809   9.791   3.999   9.614
29321SOL    HW192810   9.842   3.947   9.551
29321SOL    HW292811   9.753   4.069   9.561
29322SOL     OW92812   9.645   4.867   9.832
29322SOL    HW192813   9.622   4.934   9.768
29322SOL    HW292814   9.666   4.789   9.781
29323SOL     OW92815   9.615   3.834   9.936
29323SOL    HW192816   9.617   3.919   9.980
29323SOL    HW292817   9.603   3.771   0.006
29324SOL     OW92818   9.327   5.021   9.487
29324SOL    HW192819   9.239   5.044   9.458
29324SOL    HW292820   9.320   4.931   9.519
29325SOL     OW92821   0.108   4.320   9.651
29325SOL    HW192822   0.123   4.231   9.617
29325SOL    HW292823   0.026   4.347   9.609
29326SOL     OW92824   9.715   4.216   9.463
29326SOL    HW192825   9.786   4.279   9.479
29326SOL    HW292826   9.635   4.265   9.483
29327SOL     OW92827   9.962   5.195   9.742
29327SOL    HW192828   9.975   5.125   9.677
29327SOL    HW292829   9.937   5.149   9.822
29328SOL     OW92830   9.553   5.054   9.651
29328SOL    HW192831   9.470   5.041   9.604
29328SOL    HW292832   9.531   5.114   9.722
29329SOL     OW92833   9.373   4.047   9.343
29329SOL    HW192834   9.313   4.028   9.272
29329SOL    HW292835   9.415   4.129   9.318
29330SOL     OW92836   9.351   3.944   9.605
29330SOL    HW192837   9.369   3.972   9.515
29330SOL    HW292838   9.408   3.868   9.618
29331SOL     OW92839   9.747   4.539   0.014
29331SOL    HW192840   9.838   4.563   0.030
29331SOL    HW292841   9.747   4.499   9.927
29332SOL     OW92842   9.442   4.810   0.009
29332SOL    HW192843   9.408   4.893   0.041
29332SOL    HW292844   9.506   4.834   9.942
29333SOL     OW92845   9.766   4.170   9.828
29333SOL    HW192846   9.766   4.103   9.760
29333SOL    HW292847   9.846   4.153   9.877
29334SOL     OW92848   9.358   4.774   9.621
29334SOL    HW192849   9.443   4.755   9.582
29334SOL    HW292850   9.325   4.689   9.649
29335SOL     OW92851   9.553   6.143   0.120
29335SOL    HW192852   9.538   6.134   0.214
29335SOL    HW292853   9.529   6.234   0.100
29336SOL     OW92854   9.328   5.990   0.614
29336SOL    HW192855   9.266   6.024   0.679
29336SOL    HW292856   9.277   5.928   0.562
29337SOL     OW92857   0.179   6.369   1.921
29337SOL    HW192858   0.087   6.342   1.923
29337SOL    HW292859   0.184   6.431   1.849
29338SOL     OW92860   9.696   5.861   1.355
29338SOL    HW192861   9.755   5.874   1.429
29338SOL    HW292862   9.609   5.851   1.395
29339SOL     OW92863   9.521   7.310   0.452
29339SOL    HW192864   9.553   7.379   0.511
29339SOL    HW292865   9.601   7.262   0.427
29340SOL     OW92866   9.398   6.245   0.545
29340SOL    HW192867   9.385   6.153   0.566
29340SOL    HW292868   9.389   6.291   0.629
29341SOL     OW92869   9.387   7.111   0.089
29341SOL    HW192870   9.375   7.024   0.127
29341SOL    HW292871   9.358   7.171   0.158
29342SOL     OW92872   9.431   6.357   1.589
29342SOL    HW192873   9.494   6.413   1.634
29342SOL    HW292874   9.355   6.413   1.573
29343SOL     OW92875   9.934   6.972   0.742
29343SOL    HW192876   9.999   6.902   0.741
29343SOL    HW292877   9.912   6.986   0.649
29344SOL     OW92878   0.151   5.622   0.562
29344SOL    HW192879   0.176   5.702   0.517
29344SOL    HW292880   0.056   5.621   0.559
29345SOL     OW92881   9.604   5.781   1.723
29345SOL    HW192882   9.667   5.845   1.691
29345SOL    HW292883   9.549   5.830   1.784
29346SOL     OW92884   9.360   6.336   0.806
29346SOL    HW192885   9.451   6.356   0.828
29346SOL    HW292886   9.311   6.414   0.832
29347SOL     OW92887   9.408   7.456   1.650
29347SOL    HW192888   9.399   7.463   1.745
29347SOL    HW292889   9.345   7.389   1.625
29348SOL     OW92890   0.315   5.960   0.201
29348SOL    HW192891   0.351   6.031   0.149
29348SOL    HW292892   0.390   5.907   0.225
29349SOL     OW92893   9.861   5.780   0.869
29349SOL    HW192894   9.895   5.782   0.958
29349SOL    HW292895   9.829   5.869   0.854
29350SOL     OW92896   9.655   7.398   0.886
29350SOL    HW192897   9.710   7.321   0.881
29350SOL    HW292898   9.715   7.470   0.905
29351SOL     OW92899   9.692   6.415   0.233
29351SOL    HW192900   9.699   6.510   0.245
29351SOL    HW292901   9.677   6.381   0.321
29352SOL     OW92902   9.773   6.855   1.737
29352SOL    HW192903   9.736   6.863   1.650
29352SOL    HW292904   9.700   6.869   1.797
29353SOL     OW92905   9.461   5.861   1.500
29353SOL    HW192906   9.457   5.953   1.529
29353SOL    HW292907   9.497   5.814   1.575
29354SOL     OW92908   9.784   7.278   0.354
29354SOL    HW192909   9.836   7.348   0.393
29354SOL    HW292910   9.844   7.231   0.297
29355SOL     OW92911   9.562   7.381   1.218
29355SOL    HW192912   9.623   7.316   1.253
29355SOL    HW292913   9.560   7.364   1.124
29356SOL     OW92914   9.661   6.274   0.464
29356SOL    HW192915   9.709   6.279   0.546
29356SOL    HW292916   9.569   6.270   0.490
29357SOL     OW92917   9.872   5.608   0.155
29357SOL    HW192918   9.950   5.658   0.179
29357SOL    HW292919   9.905   5.521   0.135
29358SOL     OW92920   0.175   7.033   0.878
29358SOL    HW192921   0.193   6.951   0.832
29358SOL    HW292922   0.091   7.062   0.843
29359SOL     OW92923   9.879   5.633   0.539
29359SOL    HW192924   9.839   5.595   0.618
29359SOL    HW292925   9.847   5.723   0.536
29360SOL     OW92926   0.244   5.838   0.429
29360SOL    HW192927   0.254   5.889   0.349
29360SOL    HW292928   0.308   5.876   0.490
29361SOL     OW92929   9.404   6.166   1.390
29361SOL    HW192930   9.495   6.160   1.360
29361SOL    HW292931   9.406   6.235   1.457
29362SOL     OW92932   9.916   5.807   1.142
29362SOL    HW192933   9.923   5.836   1.233
29362SOL    HW292934   9.822   5.792   1.129
29363SOL     OW92935   9.685   5.810   0.228
29363SOL    HW192936   9.747   5.737   0.222
29363SOL    HW292937   9.740   5.888   0.220
29364SOL     OW92938   9.428   7.142   1.380
29364SOL    HW192939   9.393   7.206   1.318
29364SOL    HW292940   9.523   7.147   1.370
29365SOL     OW92941   9.840   6.084   0.878
29365SOL    HW192942   9.811   6.161   0.828
29365SOL    HW292943   9.899   6.120   0.945
29366SOL     OW92944   9.710   7.181   1.350
29366SOL    HW192945   9.801   7.152   1.345
29366SOL    HW292946   9.706   7.231   1.432
29367SOL     OW92947   9.784   5.577   1.740
29367SOL    HW192948   9.758   5.534   1.658
29367SOL    HW292949   9.720   5.647   1.750
29368SOL     OW92950   9.640   5.780   1.093
29368SOL    HW192951   9.628   5.800   1.186
29368SOL    HW292952   9.552   5.769   1.058
29369SOL     OW92953   9.333   6.896   1.277
29369SOL    HW192954   9.382   6.815   1.290
29369SOL    HW292955   9.379   6.961   1.330
29370SOL     OW92956   9.555   5.628   0.591
29370SOL    HW192957   9.534   5.709   0.637
29370SOL    HW292958   9.615   5.581   0.650
29371SOL     OW92959   9.616   6.477   1.769
29371SOL    HW192960   9.678   6.546   1.794
29371SOL    HW292961   9.664   6.395   1.784
29372SOL     OW92962   9.599   6.048   1.024
29372SOL    HW192963   9.612   5.954   1.030
29372SOL    HW292964   9.666   6.078   0.963
29373SOL     OW92965   9.324   6.850   0.181
29373SOL    HW192966   9.231   6.870   0.167
29373SOL    HW292967   9.338   6.863   0.275
29374SOL     OW92968   9.392   7.359   0.962
29374SOL    HW192969   9.360   7.280   0.917
29374SOL    HW292970   9.478   7.375   0.922
29375SOL     OW92971   9.771   7.139   0.885
29375SOL    HW192972   9.816   7.138   0.969
29375SOL    HW292973   9.827   7.088   0.827
29376SOL     OW92974   9.339   6.099   1.123
29376SOL    HW192975   9.422   6.093   1.075
29376SOL    HW292976   9.364   6.128   1.211
29377SOL     OW92977   9.524   6.154   1.750
29377SOL    HW192978   9.615   6.181   1.763
29377SOL    HW292979   9.489   6.217   1.687
29378SOL     OW92980   0.084   6.138   0.275
29378SOL    HW192981   0.159   6.079   0.277
29378SOL    HW292982   0.077   6.171   0.364
29379SOL     OW92983   9.546   7.151   1.769
29379SOL    HW192984   9.603   7.188   1.836
29379SOL    HW292985   9.544   7.057   1.787
29380SOL     OW92986   9.840   6.038   0.186
29380SOL    HW192987   9.922   6.066   0.227
29380SOL    HW292988   9.780   6.110   0.200
29381SOL     OW92989   9.388   6.695   1.490
29381SOL    HW192990   9.435   6.699   1.573
29381SOL    HW292991   9.456   6.676   1.425
29382SOL     OW92992   9.437   6.860   1.019
29382SOL    HW192993   9.418   6.844   1.112
29382SOL    HW292994   9.472   6.777   0.987
29383SOL     OW92995   0.062   7.223   1.675
29383SOL    HW192996   0.010   7.206   1.754
29383SOL    HW292997   0.150   7.196   1.699
29384SOL     OW92998   9.367   7.423   1.928
29384SOL    HW192999   9.368   7.332   1.959
29384SOL    HW293000   9.448   7.460   1.962
29385SOL     OW93001   9.541   5.861   0.736
29385SOL    HW193002   9.473   5.920   0.702
29385SOL    HW293003   9.506   5.830   0.819
29386SOL     OW93004   9.651   6.886   1.493
29386SOL    HW193005   9.695   6.940   1.427
29386SOL    HW293006   9.648   6.799   1.455
29387SOL     OW93007   9.857   7.008   0.485
29387SOL    HW193008   9.863   6.938   0.420
29387SOL    HW293009   9.782   7.061   0.456
29388SOL     OW93010   9.591   7.006   0.378
29388SOL    HW193011   9.630   6.946   0.315
29388SOL    HW293012   9.506   6.966   0.400
29389SOL     OW93013   9.420   6.668   1.768
29389SOL    HW193014   9.336   6.646   1.809
29389SOL    HW293015   9.475   6.592   1.784
29390SOL     OW93016   9.359   6.006   9.972
29390SOL    HW193017   9.277   6.038   0.008
29390SOL    HW293018   9.427   6.053   0.019
29391SOL     OW93019   9.424   5.696   0.357
29391SOL    HW193020   9.495   5.734   0.305
29391SOL    HW293021   9.466   5.669   0.438
29392SOL     OW93022   9.836   6.448   1.372
29392SOL    HW193023   9.764   6.505   1.398
29392SOL    HW293024   9.803   6.359   1.384
29393SOL     OW93025   9.645   7.325   1.578
29393SOL    HW193026   9.570   7.384   1.585
29393SOL    HW293027   9.624   7.252   1.637
29394SOL     OW93028   9.762   6.303   0.724
29394SOL    HW193029   9.844   6.351   0.731
29394SOL    HW293030   9.699   6.355   0.774
29395SOL     OW93031   9.530   6.898   1.863
29395SOL    HW193032   9.489   6.819   1.826
29395SOL    HW293033   9.499   6.902   1.953
29396SOL     OW93034   0.043   6.893   1.734
29396SOL    HW193035   9.949   6.873   1.738
29396SOL    HW293036   0.048   6.975   1.685
29397SOL     OW93037   9.765   5.883   0.560
29397SOL    HW193038   9.714   5.910   0.483
29397SOL    HW293039   9.700   5.881   0.631
29398SOL     OW93040   9.653   6.132   1.286
29398SOL    HW193041   9.692   6.050   1.317
29398SOL    HW293042   9.647   6.121   1.191
29399SOL     OW93043   9.327   6.585   0.312
29399SOL    HW193044   9.371   6.657   0.266
29399SOL    HW293045   9.298   6.623   0.394
29400SOL     OW93046   9.489   6.242   2.016
29400SOL    HW193047   9.407   6.204   2.045
29400SOL    HW293048   9.493   6.221   1.922
29401SOL     OW93049   9.274   5.998   2.571
29401SOL    HW193050   9.337   5.981   2.641
29401SOL    HW293051   9.314   5.959   2.493
29402SOL     OW93052   9.775   6.791   2.980
29402SOL    HW193053   9.747   6.875   2.945
29402SOL    HW293054   9.849   6.813   3.037
29403SOL     OW93055   0.044   6.441   3.677
29403SOL    HW193056   0.103   6.418   3.748
29403SOL    HW293057   0.069   6.383   3.605
29404SOL     OW93058   9.685   7.046   2.899
29404SOL    HW193059   9.620   7.044   2.829
29404SOL    HW293060   9.755   7.102   2.865
29405SOL     OW93061   9.677   5.983   3.487
29405SOL    HW193062   9.767   5.963   3.461
29405SOL    HW293063   9.623   5.931   3.428
29406SOL     OW93064   9.480   7.325   2.274
29406SOL    HW193065   9.485   7.373   2.357
29406SOL    HW293066   9.570   7.321   2.244
29407SOL     OW93067   9.479   7.023   2.363
29407SOL    HW193068   9.524   7.102   2.394
29407SOL    HW293069   9.479   6.964   2.438
29408SOL     OW93070   9.603   6.709   2.768
29408SOL    HW193071   9.605   6.613   2.764
29408SOL    HW293072   9.662   6.731   2.841
29409SOL     OW93073   9.489   6.226   2.469
29409SOL    HW193074   9.506   6.148   2.521
29409SOL    HW293075   9.441   6.285   2.529
29410SOL     OW93076   9.352   7.189   2.074
29410SOL    HW193077   9.392   7.102   2.074
29410SOL    HW293078   9.394   7.234   2.147
29411SOL     OW93079   9.472   6.362   3.418
29411SOL    HW193080   9.566   6.383   3.415
29411SOL    HW293081   9.433   6.415   3.350
29412SOL     OW93082   9.440   6.504   3.181
29412SOL    HW193083   9.522   6.457   3.166
29412SOL    HW293084   9.392   6.496   3.099
29413SOL     OW93085   9.610   5.798   3.686
29413SOL    HW193086   9.648   5.867   3.632
29413SOL    HW293087   9.518   5.820   3.694
29414SOL     OW93088   9.866   6.424   2.125
29414SOL    HW193089   9.890   6.365   2.054
29414SOL    HW293090   9.842   6.366   2.198
29415SOL     OW93091   9.369   6.425   2.637
29415SOL    HW193092   9.454   6.436   2.679
29415SOL    HW293093   9.317   6.500   2.666
29416SOL     OW93094   9.394   7.467   3.413
29416SOL    HW193095   9.395   7.405   3.486
29416SOL    HW293096   9.341   7.423   3.345
29417SOL     OW93097   9.677   7.410   2.742
29417SOL    HW193098   9.746   7.345   2.758
29417SOL    HW293099   9.722   7.494   2.746
29418SOL     OW93100   9.590   6.480   2.128
29418SOL    HW193101   9.684   6.471   2.113
29418SOL    HW293102   9.552   6.402   2.087
29419SOL     OW93103   9.755   6.782   3.588
29419SOL    HW193104   9.744   6.814   3.498
29419SOL    HW293105   9.686   6.827   3.638
29420SOL     OW93106   9.525   5.809   3.343
29420SOL    HW193107   9.554   5.804   3.252
29420SOL    HW293108   9.455   5.743   3.348
29421SOL     OW93109   9.754   7.335   2.228
29421SOL    HW193110   9.789   7.381   2.304
29421SOL    HW293111   9.820   7.349   2.160
29422SOL     OW93112   9.517   7.350   3.095
29422SOL    HW193113   9.603   7.312   3.079
29422SOL    HW293114   9.478   7.359   3.007
29423SOL     OW93115   9.734   6.252   2.326
29423SOL    HW193116   9.736   6.193   2.251
29423SOL    HW293117   9.645   6.243   2.361
29424SOL     OW93118   9.940   5.723   1.925
29424SOL    HW193119   0.022   5.674   1.933
29424SOL    HW293120   9.887   5.671   1.864
29425SOL     OW93121   9.606   5.631   2.023
29425SOL    HW193122   9.670   5.701   2.017
29425SOL    HW293123   9.599   5.613   2.117
29426SOL     OW93124   9.845   6.607   2.546
29426SOL    HW193125   9.833   6.685   2.601
29426SOL    HW293126   9.787   6.621   2.471
29427SOL     OW93127   9.405   6.130   3.274
29427SOL    HW193128   9.475   6.105   3.214
29427SOL    HW293129   9.432   6.214   3.309
29428SOL     OW93130   9.868   5.790   3.172
29428SOL    HW193131   9.907   5.748   3.095
29428SOL    HW293132   9.775   5.795   3.151
29429SOL     OW93133   9.663   6.350   3.162
29429SOL    HW193134   9.730   6.396   3.111
29429SOL    HW293135   9.671   6.259   3.136
29430SOL     OW93136   9.445   7.126   3.247
29430SOL    HW193137   9.429   7.209   3.202
29430SOL    HW293138   9.539   7.110   3.236
29431SOL     OW93139   9.656   6.648   2.346
29431SOL    HW193140   9.598   6.720   2.321
29431SOL    HW293141   9.640   6.580   2.282
29432SOL     OW93142   9.877   6.254   2.826
29432SOL    HW193143   9.872   6.275   2.733
29432SOL    HW293144   9.963   6.213   2.836
29433SOL     OW93145   9.712   7.097   3.167
29433SOL    HW193146   9.700   7.074   3.075
29433SOL    HW293147   9.802   7.128   3.172
29434SOL     OW93148   9.756   6.385   3.460
29434SOL    HW193149   9.813   6.404   3.386
29434SOL    HW293150   9.759   6.290   3.469
29435SOL     OW93151   9.808   5.642   3.568
29435SOL    HW193152   9.772   5.569   3.518
29435SOL    HW293153   9.730   5.685   3.605
29436SOL     OW93154   9.836   6.501   3.010
29436SOL    HW193155   9.829   6.594   2.988
29436SOL    HW293156   9.860   6.459   2.927
29437SOL     OW93157   9.322   6.893   3.154
29437SOL    HW193158   9.371   6.835   3.213
29437SOL    HW293159   9.351   6.981   3.179
29438SOL     OW93160   9.615   6.431   2.761
29438SOL    HW193161   9.678   6.409   2.692
29438SOL    HW293162   9.607   6.351   2.813
29439SOL     OW93163   9.619   6.165   2.848
29439SOL    HW193164   9.599   6.106   2.775
29439SOL    HW293165   9.712   6.184   2.838
29440SOL     OW93166   9.414   7.379   2.842
29440SOL    HW193167   9.396   7.298   2.794
29440SOL    HW293168   9.493   7.414   2.802
29441SOL     OW93169   9.883   7.214   2.810
29441SOL    HW193170   9.954   7.278   2.818
29441SOL    HW293171   9.926   7.133   2.781
29442SOL     OW93172   9.354   6.114   2.925
29442SOL    HW193173   9.363   6.030   2.881
29442SOL    HW293174   9.436   6.160   2.905
29443SOL     OW93175   9.485   6.150   3.592
29443SOL    HW193176   9.550   6.090   3.557
29443SOL    HW293177   9.479   6.220   3.527
29444SOL     OW93178   9.742   6.140   2.077
29444SOL    HW193179   9.800   6.180   2.013
29444SOL    HW293180   9.654   6.168   2.051
29445SOL     OW93181   9.449   6.725   3.340
29445SOL    HW193182   9.482   6.688   3.422
29445SOL    HW293183   9.449   6.651   3.279
29446SOL     OW93184   9.305   6.899   2.874
29446SOL    HW193185   9.326   6.882   2.966
29446SOL    HW293186   9.318   6.814   2.831
29447SOL     OW93187   9.917   7.220   3.503
29447SOL    HW193188   9.826   7.250   3.502
29447SOL    HW293189   9.964   7.284   3.451
29448SOL     OW93190   9.689   6.886   3.350
29448SOL    HW193191   9.708   6.955   3.286
29448SOL    HW293192   9.606   6.848   3.321
29449SOL     OW93193   9.972   7.118   2.251
29449SOL    HW193194   9.978   7.041   2.195
29449SOL    HW293195   9.893   7.163   2.222
29450SOL     OW93196   9.425   6.930   2.116
29450SOL    HW193197   9.408   6.837   2.132
29450SOL    HW293198   9.450   6.965   2.201
29451SOL     OW93199   9.515   6.615   3.601
29451SOL    HW193200   9.441   6.570   3.643
29451SOL    HW293201   9.507   6.706   3.632
29452SOL     OW93202   9.928   5.846   3.429
29452SOL    HW193203   9.910   5.836   3.335
29452SOL    HW293204   9.895   5.765   3.468
29453SOL     OW93205   9.404   5.931   1.843
29453SOL    HW193206   9.319   5.933   1.798
29453SOL    HW293207   9.446   6.014   1.819
29454SOL     OW93208   9.372   5.725   2.239
29454SOL    HW193209   9.394   5.765   2.155
29454SOL    HW293210   9.456   5.690   2.271
29455SOL     OW93211   9.970   6.409   3.282
29455SOL    HW193212   9.998   6.481   3.225
29455SOL    HW293213   9.980   6.331   3.228
29456SOL     OW93214   9.646   7.321   3.499
29456SOL    HW193215   9.605   7.359   3.422
29456SOL    HW293216   9.573   7.292   3.554
29457SOL     OW93217   9.800   6.338   2.578
29457SOL    HW193218   9.830   6.426   2.556
29457SOL    HW293219   9.783   6.297   2.493
29458SOL     OW93220   9.508   6.876   3.678
29458SOL    HW193221   9.469   6.938   3.617
29458SOL    HW293222   9.475   6.903   3.764
29459SOL     OW93223   9.459   6.841   2.569
29459SOL    HW193224   9.513   6.801   2.637
29459SOL    HW293225   9.417   6.767   2.525
29460SOL     OW93226   9.976   6.952   3.555
29460SOL    HW193227   9.918   6.876   3.569
29460SOL    HW293228   9.928   7.008   3.494
29461SOL     OW93229   9.620   6.071   3.109
29461SOL    HW193230   9.620   5.975   3.110
29461SOL    HW293231   9.614   6.094   3.016
29462SOL     OW93232   9.389   6.678   2.199
29462SOL    HW193233   9.424   6.591   2.181
29462SOL    HW293234   9.302   6.662   2.235
29463SOL     OW93235   9.533   6.234   3.851
29463SOL    HW193236   9.448   6.216   3.891
29463SOL    HW293237   9.524   6.202   3.761
29464SOL     OW93238   9.547   5.896   4.673
29464SOL    HW193239   9.592   5.813   4.691
29464SOL    HW293240   9.454   5.874   4.676
29465SOL     OW93241   9.282   5.976   4.343
29465SOL    HW193242   9.202   5.997   4.392
29465SOL    HW293243   9.254   5.908   4.281
29466SOL     OW93244   9.752   6.905   4.977
29466SOL    HW193245   9.718   6.939   4.894
29466SOL    HW293246   9.848   6.908   4.966
29467SOL     OW93247   0.122   6.370   5.538
29467SOL    HW193248   0.076   6.346   5.618
29467SOL    HW293249   0.203   6.412   5.568
29468SOL     OW93250   9.628   7.071   4.784
29468SOL    HW193251   9.549   7.068   4.729
29468SOL    HW293252   9.698   7.097   4.725
29469SOL     OW93253   9.774   6.014   5.260
29469SOL    HW193254   9.836   5.945   5.235
29469SOL    HW293255   9.691   5.969   5.270
29470SOL     OW93256   9.517   7.244   4.192
29470SOL    HW193257   9.545   7.316   4.248
29470SOL    HW293258   9.493   7.285   4.109
29471SOL     OW93259   9.420   7.025   4.338
29471SOL    HW193260   9.434   7.112   4.302
29471SOL    HW293261   9.469   6.967   4.280
29472SOL     OW93262   9.442   6.198   4.286
29472SOL    HW193263   9.393   6.117   4.298
29472SOL    HW293264   9.447   6.237   4.373
29473SOL     OW93265   9.956   6.970   4.452
29473SOL    HW193266   9.995   6.883   4.444
29473SOL    HW293267   9.939   6.997   4.362
29474SOL     OW93268   0.125   5.604   4.269
29474SOL    HW193269   0.143   5.688   4.227
29474SOL    HW293270   0.029   5.596   4.265
29475SOL     OW93271   9.517   6.503   5.068
29475SOL    HW193272   9.608   6.481   5.046
29475SOL    HW293273   9.469   6.489   4.987
29476SOL     OW93274   9.645   5.798   5.498
29476SOL    HW193275   9.704   5.783   5.572
29476SOL    HW293276   9.563   5.826   5.538
29477SOL     OW93277   9.871   6.391   4.032
29477SOL    HW193278   9.938   6.323   4.024
29477SOL    HW293279   9.812   6.357   4.099
29478SOL     OW93280   9.432   6.294   4.539
29478SOL    HW193281   9.501   6.315   4.603
29478SOL    HW293282   9.350   6.303   4.588
29479SOL     OW93283   0.254   6.019   3.951
29479SOL    HW193284   0.336   6.063   3.975
29479SOL    HW293285   0.278   5.962   3.878
29480SOL     OW93286   9.855   5.807   4.655
29480SOL    HW193287   9.858   5.867   4.730
29480SOL    HW293288   9.899   5.853   4.585
29481SOL     OW93289   9.701   7.380   4.606
29481SOL    HW193290   9.748   7.297   4.608
29481SOL    HW293291   9.769   7.446   4.620
29482SOL     OW93292   9.707   6.448   3.819
29482SOL    HW193293   9.769   6.441   3.891
29482SOL    HW293294   9.640   6.382   3.838
29483SOL     OW93295   9.801   6.793   5.451
29483SOL    HW193296   9.766   6.810   5.363
29483SOL    HW293297   9.729   6.814   5.510
29484SOL     OW93298   9.519   5.904   5.226
29484SOL    HW193299   9.466   5.984   5.223
29484SOL    HW293300   9.461   5.838   5.262
29485SOL     OW93301   9.890   7.268   4.048
29485SOL    HW193302   9.863   7.326   4.119
29485SOL    HW293303   9.898   7.325   3.972
29486SOL     OW93304   9.550   7.405   4.949
29486SOL    HW193305   9.600   7.329   4.977
29486SOL    HW293306   9.521   7.383   4.860
29487SOL     OW93307   9.707   6.250   4.209
29487SOL    HW193308   9.738   6.161   4.221
29487SOL    HW293309   9.613   6.246   4.224
29488SOL     OW93310   9.859   5.554   3.831
29488SOL    HW193311   9.931   5.609   3.862
29488SOL    HW293312   9.859   5.567   3.736
29489SOL     OW93313   0.139   7.149   4.566
29489SOL    HW193314   0.227   7.132   4.532
29489SOL    HW293315   0.084   7.084   4.524
29490SOL     OW93316   9.849   5.636   4.225
29490SOL    HW193317   9.771   5.635   4.280
29490SOL    HW293318   9.834   5.708   4.163
29491SOL     OW93319   9.578   5.613   3.900
29491SOL    HW193320   9.630   5.670   3.843
29491SOL    HW293321   9.641   5.554   3.940
29492SOL     OW93322   0.211   5.844   4.158
29492SOL    HW193323   0.213   5.921   4.100
29492SOL    HW293324   0.259   5.776   4.110
29493SOL     OW93325   9.391   6.161   5.165
29493SOL    HW193326   9.474   6.167   5.117
29493SOL    HW293327   9.350   6.247   5.153
29494SOL     OW93328   9.848   5.705   4.943
29494SOL    HW193329   9.865   5.650   4.867
29494SOL    HW293330   9.752   5.710   4.948
29495SOL     OW93331   9.811   5.836   4.039
29495SOL    HW193332   9.889   5.803   3.994
29495SOL    HW293333   9.784   5.912   3.987
29496SOL     OW93334   9.761   6.430   4.954
29496SOL    HW193335   9.815   6.483   4.896
29496SOL    HW293336   9.698   6.386   4.896
29497SOL     OW93337   9.382   7.109   5.053
29497SOL    HW193338   9.338   7.180   5.006
29497SOL    HW293339   9.474   7.132   5.053
29498SOL     OW93340   9.560   6.683   4.171
29498SOL    HW193341   9.572   6.775   4.148
29498SOL    HW293342   9.646   6.654   4.201
29499SOL     OW93343   9.882   6.261   4.686
29499SOL    HW193344   9.895   6.258   4.592
29499SOL    HW293345   9.858   6.351   4.705
29500SOL     OW93346   9.652   7.166   5.044
29500SOL    HW193347   9.652   7.134   4.954
29500SOL    HW293348   9.705   7.103   5.092
29501SOL     OW93349   9.706   6.284   5.299
29501SOL    HW193350   9.681   6.297   5.208
29501SOL    HW293351   9.740   6.195   5.302
29502SOL     OW93352   9.582   5.734   5.020
29502SOL    HW193353   9.570   5.814   5.070
29502SOL    HW293354   9.497   5.718   4.980
29503SOL     OW93355   9.413   6.845   4.940
29503SOL    HW193356   9.411   6.794   5.021
29503SOL    HW293357   9.399   6.936   4.968
29504SOL     OW93358   9.609   5.631   4.364
29504SOL    HW193359   9.577   5.721   4.363
29504SOL    HW293360   9.625   5.612   4.457
29505SOL     OW93361   9.624   6.457   5.493
29505SOL    HW193362   9.698   6.517   5.501
29505SOL    HW293363   9.649   6.397   5.423
29506SOL     OW93364   9.725   6.064   4.804
29506SOL    HW193365   9.665   6.022   4.743
29506SOL    HW293366   9.768   6.133   4.753
29507SOL     OW93367   9.380   6.954   3.910
29507SOL    HW193368   9.385   7.044   3.877
29507SOL    HW293369   9.293   6.923   3.884
29508SOL     OW93370   9.444   7.338   4.698
29508SOL    HW193371   9.426   7.253   4.660
29508SOL    HW293372   9.527   7.365   4.658
29509SOL     OW93373   9.844   7.143   4.631
29509SOL    HW193374   9.930   7.173   4.660
29509SOL    HW293375   9.862   7.077   4.564
29510SOL     OW93376   9.367   6.203   4.840
29510SOL    HW193377   9.444   6.152   4.816
29510SOL    HW293378   9.396   6.294   4.836
29511SOL     OW93379   0.049   6.184   4.024
29511SOL    HW193380   0.105   6.112   3.995
29511SOL    HW293381   0.076   6.200   4.115
29512SOL     OW93382   9.522   7.119   5.457
29512SOL    HW193383   9.491   7.146   5.544
29512SOL    HW293384   9.556   7.031   5.471
29513SOL     OW93385   9.759   6.079   3.926
29513SOL    HW193386   9.835   6.137   3.933
29513SOL    HW293387   9.685   6.137   3.909
29514SOL     OW93388   9.413   6.714   5.202
29514SOL    HW193389   9.408   6.688   5.294
29514SOL    HW293390   9.444   6.635   5.157
29515SOL     OW93391   9.953   7.178   5.372
29515SOL    HW193392   9.934   7.266   5.404
29515SOL    HW293393   9.999   7.192   5.289
29516SOL     OW93394   9.456   7.421   5.577
29516SOL    HW193395   9.431   7.338   5.617
29516SOL    HW293396   9.492   7.473   5.649
29517SOL     OW93397   9.541   5.896   4.398
29517SOL    HW193398   9.452   5.924   4.378
29517SOL    HW293399   9.551   5.912   4.491
29518SOL     OW93400   9.659   6.851   5.226
29518SOL    HW193401   9.693   6.862   5.137
29518SOL    HW293402   9.573   6.810   5.213
29519SOL     OW93403   9.952   7.038   4.189
29519SOL    HW193404   9.940   6.972   4.121
29519SOL    HW293405   9.928   7.121   4.148
29520SOL     OW93406   9.568   6.952   4.108
29520SOL    HW193407   9.504   6.947   4.037
29520SOL    HW293408   9.590   7.045   4.114
29521SOL     OW93409   9.413   6.639   5.470
29521SOL    HW193410   9.346   6.620   5.536
29521SOL    HW293411   9.476   6.568   5.479
29522SOL     OW93412   9.925   5.790   5.187
29522SOL    HW193413   9.911   5.775   5.093
29522SOL    HW293414   9.985   5.720   5.213
29523SOL     OW93415   9.357   5.920   3.707
29523SOL    HW193416   9.279   5.919   3.652
29523SOL    HW293417   9.404   5.999   3.680
29524SOL     OW93418   9.351   5.756   3.940
29524SOL    HW193419   9.343   5.818   3.867
29524SOL    HW293420   9.440   5.721   3.932
29525SOL     OW93421   9.977   6.466   5.131
29525SOL    HW193422   0.038   6.487   5.060
29525SOL    HW293423   9.894   6.447   5.087
29526SOL     OW93424   9.601   7.330   5.298
29526SOL    HW193425   9.626   7.293   5.213
29526SOL    HW293426   9.579   7.254   5.351
29527SOL     OW93427   9.879   6.328   4.414
29527SOL    HW193428   9.848   6.405   4.462
29527SOL    HW293429   9.812   6.313   4.347
29528SOL     OW93430   9.551   6.859   5.564
29528SOL    HW193431   9.504   6.789   5.518
29528SOL    HW293432   9.500   6.875   5.643
29529SOL     OW93433   0.010   6.956   5.517
29529SOL    HW193434   9.939   6.897   5.490
29529SOL    HW293435   9.992   7.038   5.471
29530SOL     OW93436   9.768   5.984   4.266
29530SOL    HW193437   9.770   5.934   4.184
29530SOL    HW293438   9.688   5.955   4.310
29531SOL     OW93439   9.638   6.146   5.050
29531SOL    HW193440   9.701   6.100   5.106
29531SOL    HW293441   9.668   6.128   4.961
29532SOL     OW93442   9.306   6.614   4.088
29532SOL    HW193443   9.395   6.640   4.111
29532SOL    HW293444   9.308   6.519   4.086
29533SOL     OW93445   9.451   6.305   5.641
29533SOL    HW193446   9.442   6.347   5.727
29533SOL    HW293447   9.518   6.357   5.596
29534SOL     OW93448   9.529   5.896   6.570
29534SOL    HW193449   9.576   5.872   6.651
29534SOL    HW293450   9.441   5.861   6.583
29535SOL     OW93451   9.298   6.032   6.232
29535SOL    HW193452   9.238   6.060   6.301
29535SOL    HW293453   9.242   6.004   6.160
29536SOL     OW93454   9.840   6.787   6.749
29536SOL    HW193455   9.778   6.805   6.679
29536SOL    HW293456   9.798   6.821   6.828
29537SOL     OW93457   0.118   6.373   7.437
29537SOL    HW193458   0.066   6.357   7.516
29537SOL    HW293459   0.111   6.467   7.422
29538SOL     OW93460   9.744   5.941   7.072
29538SOL    HW193461   9.729   6.032   7.046
29538SOL    HW293462   9.659   5.912   7.106
29539SOL     OW93463   9.611   7.317   5.991
29539SOL    HW193464   9.604   7.375   6.067
29539SOL    HW293465   9.520   7.298   5.967
29540SOL     OW93466   9.462   6.972   6.202
29540SOL    HW193467   9.440   7.047   6.257
29540SOL    HW293468   9.421   6.897   6.245
29541SOL     OW93469   9.471   6.253   6.249
29541SOL    HW193470   9.408   6.183   6.229
29541SOL    HW293471   9.513   6.225   6.330
29542SOL     OW93472   9.410   7.172   5.708
29542SOL    HW193473   9.392   7.080   5.725
29542SOL    HW293474   9.385   7.217   5.789
29543SOL     OW93475   9.420   6.393   7.263
29543SOL    HW193476   9.485   6.387   7.194
29543SOL    HW293477   9.338   6.410   7.217
29544SOL     OW93478   9.920   7.008   6.274
29544SOL    HW193479   9.872   6.933   6.311
29544SOL    HW293480   9.870   7.032   6.197
29545SOL     OW93481   0.079   5.612   6.086
29545SOL    HW193482   0.069   5.613   5.990
29545SOL    HW293483   9.989   5.620   6.119
29546SOL     OW93484   9.530   6.501   6.830
29546SOL    HW193485   9.540   6.453   6.912
29546SOL    HW293486   9.447   6.469   6.793
29547SOL     OW93487   9.808   6.354   5.866
29547SOL    HW193488   9.757   6.434   5.856
29547SOL    HW293489   9.781   6.318   5.950
29548SOL     OW93490   9.454   7.437   7.185
29548SOL    HW193491   9.400   7.423   7.263
29548SOL    HW293492   9.410   7.386   7.116
29549SOL     OW93493   0.166   5.922   5.801
29549SOL    HW193494   0.226   5.991   5.773
29549SOL    HW293495   0.107   5.909   5.727
29550SOL     OW93496   9.838   5.780   6.513
29550SOL    HW193497   9.852   5.796   6.607
29550SOL    HW293498   9.833   5.868   6.475
29551SOL     OW93499   9.674   7.378   6.457
29551SOL    HW193500   9.731   7.304   6.477
29551SOL    HW293501   9.732   7.454   6.457
29552SOL     OW93502   9.610   6.556   5.886
29552SOL    HW193503   9.585   6.620   5.819
29552SOL    HW293504   9.527   6.530   5.926
29553SOL     OW93505   9.815   6.855   7.397
29553SOL    HW193506   9.801   6.798   7.321
29553SOL    HW293507   9.728   6.870   7.432
29554SOL     OW93508   9.493   5.832   7.139
29554SOL    HW193509   9.413   5.879   7.119
29554SOL    HW293510   9.475   5.789   7.223
29555SOL     OW93511   9.556   7.343   6.795
29555SOL    HW193512   9.621   7.275   6.812
29555SOL    HW293513   9.529   7.329   6.705
29556SOL     OW93514   9.703   6.251   6.095
29556SOL    HW193515   9.725   6.159   6.108
29556SOL    HW293516   9.616   6.261   6.134
29557SOL     OW93517   9.828   5.695   5.685
29557SOL    HW193518   9.903   5.677   5.742
29557SOL    HW293519   9.843   5.640   5.608
29558SOL     OW93520   0.177   6.950   6.447
29558SOL    HW193521   0.207   6.963   6.357
29558SOL    HW293522   0.084   6.972   6.444
29559SOL     OW93523   9.808   5.656   6.055
29559SOL    HW193524   9.733   5.648   6.114
29559SOL    HW293525   9.791   5.735   6.004
29560SOL     OW93526   9.590   5.580   5.765
29560SOL    HW193527   9.671   5.623   5.737
29560SOL    HW293528   9.620   5.505   5.817
29561SOL     OW93529   0.265   5.813   6.036
29561SOL    HW193530   0.189   5.764   6.069
29561SOL    HW293531   0.231   5.864   5.963
29562SOL     OW93532   9.785   6.786   6.357
29562SOL    HW193533   9.734   6.793   6.437
29562SOL    HW293534   9.725   6.745   6.294
29563SOL     OW93535   9.444   6.167   6.942
29563SOL    HW193536   9.539   6.163   6.946
29563SOL    HW293537   9.421   6.248   6.988
29564SOL     OW93538   9.895   5.858   6.772
29564SOL    HW193539   9.937   5.840   6.856
29564SOL    HW293540   9.801   5.850   6.790
29565SOL     OW93541   9.755   5.875   5.885
29565SOL    HW193542   9.782   5.819   5.812
29565SOL    HW293543   9.736   5.960   5.844
29566SOL     OW93544   9.361   7.260   6.976
29566SOL    HW193545   9.420   7.300   6.913
29566SOL    HW293546   9.382   7.167   6.973
29567SOL     OW93547   9.624   6.692   6.140
29567SOL    HW193548   9.601   6.779   6.108
29567SOL    HW293549   9.641   6.641   6.061
29568SOL     OW93550   9.871   6.061   6.471
29568SOL    HW193551   9.866   6.143   6.424
29568SOL    HW293552   9.925   6.081   6.548
29569SOL     OW93553   9.730   7.127   6.831
29569SOL    HW193554   9.708   7.091   6.745
29569SOL    HW293555   9.711   7.055   6.892
29570SOL     OW93556   9.773   6.512   6.700
29570SOL    HW193557   9.790   6.605   6.686
29570SOL    HW293558   9.681   6.509   6.725
29571SOL     OW93559   9.629   5.803   6.817
29571SOL    HW193560   9.610   5.823   6.909
29571SOL    HW293561   9.604   5.711   6.806
29572SOL     OW93562   9.589   5.631   6.218
29572SOL    HW193563   9.561   5.721   6.236
29572SOL    HW293564   9.619   5.598   6.303
29573SOL     OW93565   9.724   6.464   7.489
29573SOL    HW193566   9.768   6.503   7.413
29573SOL    HW293567   9.657   6.407   7.451
29574SOL     OW93568   9.586   6.146   6.471
29574SOL    HW193569   9.550   6.072   6.519
29574SOL    HW293570   9.681   6.132   6.473
29575SOL     OW93571   9.362   6.888   5.769
29575SOL    HW193572   9.272   6.915   5.749
29575SOL    HW293573   9.355   6.794   5.786
29576SOL     OW93574   9.410   7.341   6.530
29576SOL    HW193575   9.382   7.264   6.481
29576SOL    HW293576   9.499   7.358   6.500
29577SOL     OW93577   9.857   7.169   6.503
29577SOL    HW193578   9.790   7.115   6.544
29577SOL    HW293579   9.882   7.121   6.424
29578SOL     OW93580   9.319   6.100   6.704
29578SOL    HW193581   9.321   6.177   6.647
29578SOL    HW293582   9.375   6.123   6.778
29579SOL     OW93583   9.475   6.140   7.363
29579SOL    HW193584   9.525   6.103   7.291
29579SOL    HW293585   9.442   6.224   7.330
29580SOL     OW93586   0.081   6.293   5.820
29580SOL    HW193587   0.101   6.242   5.898
29580SOL    HW293588   9.989   6.317   5.829
29581SOL     OW93589   9.553   7.132   7.355
29581SOL    HW193590   9.506   7.162   7.432
29581SOL    HW293591   9.568   7.039   7.370
29582SOL     OW93592   9.705   6.114   5.757
29582SOL    HW193593   9.747   6.195   5.786
29582SOL    HW293594   9.626   6.144   5.711
29583SOL     OW93595   9.958   7.227   7.159
29583SOL    HW193596   9.867   7.254   7.166
29583SOL    HW293597   9.969   7.201   7.067
29584SOL     OW93598   9.368   7.415   7.454
29584SOL    HW193599   9.372   7.323   7.482
29584SOL    HW293600   9.447   7.455   7.492
29585SOL     OW93601   9.538   5.892   6.289
29585SOL    HW193602   9.456   5.938   6.270
29585SOL    HW293603   9.546   5.895   6.384
29586SOL     OW93604   9.693   6.887   6.976
29586SOL    HW193605   9.603   6.921   6.982
29586SOL    HW293606   9.702   6.830   7.053
29587SOL     OW93607   9.815   7.064   5.994
29587SOL    HW193608   9.866   7.013   5.931
29587SOL    HW293609   9.727   7.026   5.990
29588SOL     OW93610   9.572   6.933   5.961
29588SOL    HW193611   9.501   6.917   5.898
29588SOL    HW293612   9.526   6.957   6.042
29589SOL     OW93613   9.471   6.676   7.267
29589SOL    HW193614   9.464   6.581   7.276
29589SOL    HW293615   9.559   6.689   7.230
29590SOL     OW93616   9.989   5.822   7.028
29590SOL    HW193617   9.998   5.739   7.075
29590SOL    HW293618   9.906   5.858   7.059
29591SOL     OW93619   9.381   5.831   5.588
29591SOL    HW193620   9.376   5.737   5.571
29591SOL    HW293621   9.338   5.872   5.513
29592SOL     OW93622   9.356   5.705   5.853
29592SOL    HW193623   9.346   5.770   5.783
29592SOL    HW293624   9.442   5.667   5.838
29593SOL     OW93625   9.702   7.317   7.211
29593SOL    HW193626   9.626   7.366   7.180
29593SOL    HW293627   9.665   7.245   7.262
29594SOL     OW93628   9.860   6.282   6.323
29594SOL    HW193629   9.931   6.345   6.321
29594SOL    HW293630   9.814   6.295   6.240
29595SOL     OW93631   9.543   6.873   7.446
29595SOL    HW193632   9.515   6.807   7.383
29595SOL    HW293633   9.474   6.875   7.512
29596SOL     OW93634   0.031   7.019   7.325
29596SOL    HW193635   9.952   6.968   7.342
29596SOL    HW293636   0.001   7.093   7.271
29597SOL     OW93637   9.755   5.985   6.137
29597SOL    HW193638   9.747   5.940   6.053
29597SOL    HW293639   9.685   5.948   6.191
29598SOL     OW93640   9.536   6.226   7.616
29598SOL    HW193641   9.462   6.195   7.669
29598SOL    HW293642   9.513   6.200   7.527
29599SOL     OW93643   9.512   5.894   8.415
29599SOL    HW193644   9.544   5.856   8.497
29599SOL    HW293645   9.430   5.848   8.397
29600SOL     OW93646   9.344   5.960   8.024
29600SOL    HW193647   9.264   5.952   8.075
29600SOL    HW293648   9.327   5.910   7.944
29601SOL     OW93649   0.064   6.416   9.329
29601SOL    HW193650   0.103   6.502   9.349
29601SOL    HW293651   0.070   6.409   9.234
29602SOL     OW93652   9.767   7.060   8.588
29602SOL    HW193653   9.736   6.977   8.552
29602SOL    HW293654   9.788   7.113   8.511
29603SOL     OW93655   9.733   5.995   9.008
29603SOL    HW193656   9.791   6.006   8.933
29603SOL    HW293657   9.666   5.933   8.977
29604SOL     OW93658   9.527   7.361   7.877
29604SOL    HW193659   9.549   7.412   7.955
29604SOL    HW293660   9.610   7.321   7.850
29605SOL     OW93661   9.435   7.105   7.997
29605SOL    HW193662   9.459   7.196   7.978
29605SOL    HW293663   9.406   7.107   8.089
29606SOL     OW93664   9.543   6.699   8.376
29606SOL    HW193665   9.555   6.605   8.393
29606SOL    HW293666   9.604   6.742   8.435
29607SOL     OW93667   9.442   6.230   8.008
29607SOL    HW193668   9.416   6.138   8.019
29607SOL    HW293669   9.430   6.268   8.095
29608SOL     OW93670   9.391   7.170   7.583
29608SOL    HW193671   9.375   7.076   7.585
29608SOL    HW293672   9.358   7.202   7.667
29609SOL     OW93673   9.437   6.330   9.036
29609SOL    HW193674   9.528   6.358   9.045
29609SOL    HW293675   9.387   6.411   9.045
29610SOL     OW93676   9.898   7.036   8.166
29610SOL    HW193677   9.870   6.945   8.169
29610SOL    HW293678   9.903   7.057   8.073
29611SOL     OW93679   9.525   6.495   8.728
29611SOL    HW193680   9.607   6.460   8.763
29611SOL    HW293681   9.532   6.485   8.633
29612SOL     OW93682   9.609   5.820   9.226
29612SOL    HW193683   9.615   5.913   9.202
29612SOL    HW293684   9.532   5.815   9.283
29613SOL     OW93685   9.867   6.351   7.703
29613SOL    HW193686   9.813   6.397   7.639
29613SOL    HW293687   9.808   6.337   7.778
29614SOL     OW93688   9.379   6.380   8.242
29614SOL    HW193689   9.460   6.385   8.293
29614SOL    HW293690   9.316   6.432   8.291
29615SOL     OW93691   9.381   7.453   9.053
29615SOL    HW193692   9.398   7.428   9.143
29615SOL    HW293693   9.291   7.424   9.036
29616SOL     OW93694   0.250   5.916   7.611
29616SOL    HW193695   0.281   6.006   7.600
29616SOL    HW293696   0.156   5.920   7.595
29617SOL     OW93697   9.809   5.779   8.349
29617SOL    HW193698   9.832   5.780   8.442
29617SOL    HW293699   9.814   5.871   8.322
29618SOL     OW93700   9.652   7.422   8.352
29618SOL    HW193701   9.717   7.352   8.360
29618SOL    HW293702   9.700   7.502   8.371
29619SOL     OW93703   9.593   6.529   7.728
29619SOL    HW193704   9.640   6.537   7.645
29619SOL    HW293705   9.561   6.438   7.728
29620SOL     OW93706   9.792   6.798   9.184
29620SOL    HW193707   9.854   6.847   9.130
29620SOL    HW293708   9.730   6.864   9.215
29621SOL     OW93709   9.514   5.836   8.929
29621SOL    HW193710   9.444   5.899   8.945
29621SOL    HW293711   9.486   5.756   8.974
29622SOL     OW93712   9.787   7.315   7.794
29622SOL    HW193713   9.829   7.382   7.846
29622SOL    HW293714   9.808   7.337   7.703
29623SOL     OW93715   9.557   7.392   8.723
29623SOL    HW193716   9.597   7.379   8.809
29623SOL    HW293717   9.610   7.339   8.664
29624SOL     OW93718   9.717   6.253   7.925
29624SOL    HW193719   9.743   6.162   7.936
29624SOL    HW293720   9.624   6.254   7.949
29625SOL     OW93721   9.885   5.619   7.586
29625SOL    HW193722   9.956   5.624   7.650
29625SOL    HW293723   9.930   5.612   7.501
29626SOL     OW93724   0.137   7.019   8.316
29626SOL    HW193725   0.163   6.936   8.277
29626SOL    HW293726   0.053   7.040   8.274
29627SOL     OW93727   0.196   5.837   7.894
29627SOL    HW193728   0.243   5.895   7.834
29627SOL    HW293729   0.221   5.867   7.981
29628SOL     OW93730   9.826   6.761   8.164
29628SOL    HW193731   9.787   6.730   8.246
29628SOL    HW293732   9.764   6.734   8.096
29629SOL     OW93733   9.410   6.128   8.849
29629SOL    HW193734   9.502   6.130   8.821
29629SOL    HW293735   9.402   6.202   8.909
29630SOL     OW93736   9.847   5.803   8.616
29630SOL    HW193737   9.884   5.803   8.704
29630SOL    HW293738   9.752   5.803   8.630
29631SOL     OW93739   9.775   5.853   7.714
29631SOL    HW193740   9.831   5.799   7.659
29631SOL    HW293741   9.777   5.940   7.673
29632SOL     OW93742   9.393   7.152   8.808
29632SOL    HW193743   9.394   7.239   8.767
29632SOL    HW293744   9.484   7.136   8.831
29633SOL     OW93745   9.628   6.692   7.963
29633SOL    HW193746   9.611   6.775   7.918
29633SOL    HW293747   9.629   6.626   7.894
29634SOL     OW93748   9.865   6.069   8.335
29634SOL    HW193749   9.855   6.151   8.287
29634SOL    HW293750   9.926   6.090   8.406
29635SOL     OW93751   9.665   7.121   8.834
29635SOL    HW193752   9.702   7.112   8.746
29635SOL    HW293753   9.740   7.118   8.892
29636SOL     OW93754   9.712   6.362   9.075
29636SOL    HW193755   9.731   6.377   8.982
29636SOL    HW293756   9.772   6.292   9.100
29637SOL     OW93757   9.808   5.674   9.100
29637SOL    HW193758   9.765   5.596   9.063
29637SOL    HW293759   9.735   5.728   9.131
29638SOL     OW93760   9.573   5.782   8.663
29638SOL    HW193761   9.555   5.810   8.753
29638SOL    HW293762   9.557   5.687   8.664
29639SOL     OW93763   9.333   6.906   8.688
29639SOL    HW193764   9.370   6.839   8.746
29639SOL    HW293765   9.353   6.989   8.729
29640SOL     OW93766   9.690   5.632   7.982
29640SOL    HW193767   9.666   5.681   8.060
29640SOL    HW293768   9.706   5.543   8.013
29641SOL     OW93769   9.665   6.563   9.264
29641SOL    HW193770   9.717   6.639   9.239
29641SOL    HW293771   9.691   6.494   9.202
29642SOL     OW93772   9.603   6.436   8.450
29642SOL    HW193773   9.680   6.485   8.479
29642SOL    HW293774   9.630   6.345   8.452
29643SOL     OW93775   9.625   6.141   8.460
29643SOL    HW193776   9.576   6.061   8.443
29643SOL    HW293777   9.711   6.125   8.421
29644SOL     OW93778   9.340   6.895   7.636
29644SOL    HW193779   9.252   6.924   7.613
29644SOL    HW293780   9.328   6.808   7.675
29645SOL     OW93781   9.385   7.354   8.386
29645SOL    HW193782   9.369   7.271   8.341
29645SOL    HW293783   9.479   7.368   8.378
29646SOL     OW93784   9.838   7.218   8.368
29646SOL    HW193785   9.926   7.249   8.390
29646SOL    HW293786   9.851   7.161   8.293
29647SOL     OW93787   9.366   6.187   8.577
29647SOL    HW193788   9.450   6.185   8.532
29647SOL    HW293789   9.388   6.175   8.669
29648SOL     OW93790   9.541   6.109   9.168
29648SOL    HW193791   9.612   6.088   9.107
29648SOL    HW293792   9.492   6.179   9.124
29649SOL     OW93793   0.125   6.280   7.751
29649SOL    HW193794   0.135   6.270   7.846
29649SOL    HW293795   0.033   6.302   7.738
29650SOL     OW93796   9.513   7.136   9.147
29650SOL    HW193797   9.501   7.212   9.203
29650SOL    HW293798   9.550   7.069   9.205
29651SOL     OW93799   9.790   6.104   7.598
29651SOL    HW193800   9.838   6.178   7.635
29651SOL    HW293801   9.699   6.133   7.597
29652SOL     OW93802   9.415   6.705   8.879
29652SOL    HW193803   9.425   6.671   8.968
29652SOL    HW293804   9.447   6.634   8.823
29653SOL     OW93805   9.330   6.877   8.412
29653SOL    HW193806   9.325   6.890   8.507
29653SOL    HW293807   9.405   6.819   8.399
29654SOL     OW93808   9.451   7.360   9.297
29654SOL    HW193809   9.395   7.301   9.348
29654SOL    HW293810   9.502   7.408   9.362
29655SOL     OW93811   9.588   5.866   8.135
29655SOL    HW193812   9.503   5.895   8.103
29655SOL    HW293813   9.580   5.869   8.231
29656SOL     OW93814   9.896   7.073   7.889
29656SOL    HW193815   9.892   7.010   7.818
29656SOL    HW293816   9.846   7.149   7.857
29657SOL     OW93817   9.545   6.915   7.831
29657SOL    HW193818   9.484   6.921   7.757
29657SOL    HW293819   9.513   6.981   7.893
29658SOL     OW93820   9.417   6.604   9.140
29658SOL    HW193821   9.346   6.595   9.203
29658SOL    HW293822   9.497   6.597   9.192
29659SOL     OW93823   9.925   5.805   8.877
29659SOL    HW193824   0.008   5.842   8.904
29659SOL    HW293825   9.890   5.764   8.956
29660SOL     OW93826   9.366   5.931   7.526
29660SOL    HW193827   9.381   5.850   7.477
29660SOL    HW293828   9.393   6.001   7.467
29661SOL     OW93829   9.281   5.802   7.759
29661SOL    HW193830   9.310   5.856   7.685
29661SOL    HW293831   9.276   5.714   7.722
29662SOL     OW93832   9.636   7.368   8.996
29662SOL    HW193833   9.548   7.398   9.015
29662SOL    HW293834   9.634   7.274   9.014
29663SOL     OW93835   9.844   6.294   8.188
29663SOL    HW193836   9.919   6.353   8.198
29663SOL    HW293837   9.814   6.309   8.098
29664SOL     OW93838   9.586   6.939   9.334
29664SOL    HW193839   9.497   6.904   9.342
29664SOL    HW293840   9.618   6.944   9.424
29665SOL     OW93841   9.402   6.711   8.140
29665SOL    HW193842   9.453   6.713   8.221
29665SOL    HW293843   9.468   6.702   8.071
29666SOL     OW93844   9.777   5.980   7.964
29666SOL    HW193845   9.776   5.925   7.886
29666SOL    HW293846   9.718   5.937   8.025
29667SOL     OW93847   9.659   6.169   8.746
29667SOL    HW193848   9.705   6.248   8.771
29667SOL    HW293849   9.673   6.161   8.652
29668SOL     OW93850   9.334   6.641   7.754
29668SOL    HW193851   9.429   6.640   7.749
29668SOL    HW293852   9.310   6.548   7.765
29669SOL     OW93853   9.505   6.132   9.438
29669SOL    HW193854   9.480   6.218   9.474
29669SOL    HW293855   9.516   6.148   9.344
29670SOL     OW93856   9.534   7.326   9.754
29670SOL    HW193857   9.544   7.397   9.818
29670SOL    HW293858   9.620   7.317   9.713
29671SOL     OW93859   9.497   7.067   9.840
29671SOL    HW193860   9.508   7.159   9.814
29671SOL    HW293861   9.460   7.072   9.928
29672SOL     OW93862   9.399   6.307   9.853
29672SOL    HW193863   9.311   6.269   9.858
29672SOL    HW293864   9.409   6.355   9.936
29673SOL     OW93865   9.305   7.170   9.426
29673SOL    HW193866   9.312   7.076   9.443
29673SOL    HW293867   9.297   7.210   9.513
29674SOL     OW93868   0.116   5.622   9.845
29674SOL    HW193869   0.149   5.712   9.851
29674SOL    HW293870   0.025   5.628   9.874
29675SOL     OW93871   9.865   6.313   9.494
29675SOL    HW193872   9.931   6.358   9.441
29675SOL    HW293873   9.809   6.384   9.527
29676SOL     OW93874   9.450   6.406   0.106
29676SOL    HW193875   9.538   6.426   0.139
29676SOL    HW293876   9.392   6.464   0.155
29677SOL     OW93877   0.216   5.932   9.493
29677SOL    HW193878   0.227   6.027   9.485
29677SOL    HW293879   0.272   5.896   9.424
29678SOL     OW93880   9.626   7.437   0.186
29678SOL    HW193881   9.641   7.361   0.242
29678SOL    HW293882   9.713   7.473   0.171
29679SOL     OW93883   9.650   6.505   9.538
29679SOL    HW193884   9.654   6.532   9.446
29679SOL    HW293885   9.570   6.453   9.545
29680SOL     OW93886   9.787   7.337   9.639
29680SOL    HW193887   9.834   7.388   9.705
29680SOL    HW293888   9.856   7.296   9.587
29681SOL     OW93889   9.674   6.274   9.820
29681SOL    HW193890   9.675   6.178   9.817
29681SOL    HW293891   9.582   6.297   9.827
29682SOL     OW93892   9.876   5.733   9.367
29682SOL    HW193893   9.946   5.671   9.387
29682SOL    HW293894   9.853   5.715   9.275
29683SOL     OW93895   9.840   5.685   9.849
29683SOL    HW193896   9.767   5.674   9.911
29683SOL    HW293897   9.873   5.773   9.866
29684SOL     OW93898   9.621   5.649   9.478
29684SOL    HW193899   9.687   5.698   9.428
29684SOL    HW293900   9.671   5.591   9.534
29685SOL     OW93901   0.190   5.893   9.810
29685SOL    HW193902   0.172   5.908   9.717
29685SOL    HW293903   0.274   5.937   9.825
29686SOL     OW93904   9.788   6.659   9.964
29686SOL    HW193905   9.762   6.674   0.055
29686SOL    HW293906   9.709   6.676   9.913
29687SOL     OW93907   9.595   6.680   9.757
29687SOL    HW193908   9.603   6.766   9.714
29687SOL    HW293909   9.637   6.620   9.695
29688SOL     OW93910   9.575   5.727   9.985
29688SOL    HW193911   9.608   5.783   0.056
29688SOL    HW293912   9.565   5.641   0.026
29689SOL     OW93913   9.331   6.885   9.472
29689SOL    HW193914   9.238   6.904   9.457
29689SOL    HW293915   9.332   6.798   9.512
29690SOL     OW93916   0.016   6.115   9.613
29690SOL    HW193917   0.072   6.160   9.676
29690SOL    HW293918   9.960   6.185   9.578
29691SOL     OW93919   9.773   6.056   9.453
29691SOL    HW193920   9.801   6.147   9.465
29691SOL    HW293921   9.678   6.060   9.453
29692SOL     OW93922   9.984   7.072   9.744
29692SOL    HW193923   9.965   6.999   9.685
29692SOL    HW293924   9.913   7.072   9.807
29693SOL     OW93925   9.566   6.922   9.621
29693SOL    HW193926   9.479   6.918   9.580
29693SOL    HW293927   9.552   6.974   9.700
29694SOL     OW93928   9.374   5.899   9.372
29694SOL    HW193929   9.325   5.916   9.292
29694SOL    HW293930   9.413   5.983   9.395
29695SOL     OW93931   9.426   5.783   9.619
29695SOL    HW193932   9.388   5.829   9.544
29695SOL    HW293933   9.494   5.727   9.581
29696SOL     OW93934   9.899   6.412   9.895
29696SOL    HW193935   9.866   6.502   9.901
29696SOL    HW293936   9.825   6.362   9.861
29697SOL     OW93937   9.349   6.681   9.962
29697SOL    HW193938   9.344   6.744   0.033
29697SOL    HW293939   9.434   6.697   9.921
29698SOL     OW93940   9.662   6.002   9.898
29698SOL    HW193941   9.755   5.982   9.901
29698SOL    HW293942   9.645   6.051   9.979
29699SOL     OW93943   9.352   6.651   9.622
29699SOL    HW193944   9.427   6.656   9.680
29699SOL    HW293945   9.355   6.563   9.584
29700SOL     OW93946   9.481   7.988   0.085
29700SOL    HW193947   9.403   8.003   0.138
29700SOL    HW293948   9.468   8.044   0.008
29701SOL     OW93949   9.508   7.742   1.002
29701SOL    HW193950   9.541   7.711   1.086
29701SOL    HW293951   9.421   7.704   0.994
29702SOL     OW93952   9.296   7.842   0.646
29702SOL    HW193953   9.212   7.862   0.689
29702SOL    HW293954   9.279   7.764   0.594
29703SOL     OW93955   9.775   8.663   1.089
29703SOL    HW193956   9.722   8.743   1.085
29703SOL    HW293957   9.859   8.689   1.052
29704SOL     OW93958   9.695   8.919   1.026
29704SOL    HW193959   9.712   9.012   1.041
29704SOL    HW293960   9.773   8.887   0.980
29705SOL     OW93961   9.700   7.867   1.504
29705SOL    HW193962   9.783   7.821   1.493
29705SOL    HW293963   9.634   7.798   1.514
29706SOL     OW93964   9.548   9.175   0.480
29706SOL    HW193965   9.563   9.239   0.550
29706SOL    HW293966   9.635   9.157   0.445
29707SOL     OW93967   9.480   8.906   0.453
29707SOL    HW193968   9.492   8.995   0.485
29707SOL    HW293969   9.471   8.853   0.532
29708SOL     OW93970   9.558   8.532   0.837
29708SOL    HW193971   9.545   8.438   0.850
29708SOL    HW293972   9.517   8.573   0.913
29709SOL     OW93973   9.421   8.088   0.582
29709SOL    HW193974   9.380   8.004   0.603
29709SOL    HW293975   9.396   8.145   0.654
29710SOL     OW93976   9.285   9.021   0.140
29710SOL    HW193977   9.288   8.926   0.132
29710SOL    HW293978   9.375   9.047   0.157
29711SOL     OW93979   9.459   8.194   1.588
29711SOL    HW193980   9.552   8.215   1.585
29711SOL    HW293981   9.418   8.274   1.620
29712SOL     OW93982   9.915   8.751   0.704
29712SOL    HW193983   9.922   8.787   0.792
29712SOL    HW293984   9.964   8.812   0.649
29713SOL     OW93985   0.116   7.450   0.547
29713SOL    HW193986   0.158   7.523   0.501
29713SOL    HW293987   0.022   7.468   0.538
29714SOL     OW93988   9.661   7.702   1.856
29714SOL    HW193989   9.707   7.776   1.896
29714SOL    HW293990   9.569   7.721   1.868
29715SOL     OW93991   9.818   8.160   0.266
29715SOL    HW193992   9.911   8.140   0.276
29715SOL    HW293993   9.782   8.150   0.355
29716SOL     OW93994   9.352   8.279   0.779
29716SOL    HW193995   9.429   8.259   0.832
29716SOL    HW293996   9.311   8.353   0.824
29717SOL     OW93997   9.453   9.257   1.527
29717SOL    HW193998   9.447   9.247   1.622
29717SOL    HW293999   9.449   9.351   1.512
29718SOL     OW94000   0.203   7.843   0.215
29718SOL    HW194001   0.295   7.835   0.190
29718SOL    HW294002   0.154   7.828   0.134
29719SOL     OW94003   9.814   7.623   0.931
29719SOL    HW194004   9.828   7.637   1.025
29719SOL    HW294005   9.820   7.711   0.893
29720SOL     OW94006   9.636   9.280   0.931
29720SOL    HW194007   9.730   9.260   0.923
29720SOL    HW294008   9.623   9.295   1.025
29721SOL     OW94009   9.596   8.325   0.226
29721SOL    HW194010   9.677   8.274   0.230
29721SOL    HW294011   9.533   8.274   0.277
29722SOL     OW94012   9.747   8.661   1.760
29722SOL    HW194013   9.704   8.688   1.679
29722SOL    HW294014   9.696   8.704   1.829
29723SOL     OW94015   9.479   7.697   1.527
29723SOL    HW194016   9.413   7.754   1.568
29723SOL    HW294017   9.466   7.612   1.569
29724SOL     OW94018   9.802   9.162   0.355
29724SOL    HW194019   9.825   9.227   0.422
29724SOL    HW294020   9.868   9.173   0.287
29725SOL     OW94021   9.676   9.283   1.213
29725SOL    HW194022   9.677   9.247   1.301
29725SOL    HW294023   9.739   9.229   1.165
29726SOL     OW94024   9.694   8.115   0.511
29726SOL    HW194025   9.724   8.026   0.530
29726SOL    HW294026   9.601   8.114   0.532
29727SOL     OW94027   9.870   7.544   0.120
29727SOL    HW194028   9.956   7.519   0.153
29727SOL    HW294029   9.880   7.545   0.025
29728SOL     OW94030   9.857   7.520   0.482
29728SOL    HW194031   9.779   7.512   0.536
29728SOL    HW294032   9.839   7.596   0.426
29729SOL     OW94033   0.247   7.644   0.403
29729SOL    HW194034   0.215   7.727   0.368
29729SOL    HW294035   0.340   7.644   0.383
29730SOL     OW94036   9.820   8.503   0.757
29730SOL    HW194037   9.728   8.525   0.769
29730SOL    HW294038   9.860   8.585   0.727
29731SOL     OW94039   9.378   8.015   1.389
29731SOL    HW194040   9.471   8.011   1.365
29731SOL    HW294041   9.374   8.080   1.459
29732SOL     OW94042   9.837   7.683   1.196
29732SOL    HW194043   9.888   7.689   1.277
29732SOL    HW294044   9.746   7.675   1.225
29733SOL     OW94045   9.788   7.731   0.303
29733SOL    HW194046   9.814   7.663   0.242
29733SOL    HW294047   9.775   7.809   0.248
29734SOL     OW94048   9.699   8.308   1.282
29734SOL    HW194049   9.779   8.311   1.334
29734SOL    HW294050   9.667   8.218   1.292
29735SOL     OW94051   9.409   9.010   1.386
29735SOL    HW194052   9.414   9.100   1.416
29735SOL    HW294053   9.498   8.989   1.356
29736SOL     OW94054   9.574   8.561   0.395
29736SOL    HW194055   9.599   8.636   0.342
29736SOL    HW294056   9.617   8.486   0.353
29737SOL     OW94057   9.876   7.951   0.914
29737SOL    HW194058   9.865   8.030   0.861
29737SOL    HW294059   9.932   7.979   0.987
29738SOL     OW94060   9.663   8.923   1.306
29738SOL    HW194061   9.679   8.922   1.212
29738SOL    HW294062   9.703   9.005   1.336
29739SOL     OW94063   9.738   8.235   1.614
29739SOL    HW194064   9.796   8.277   1.550
29739SOL    HW294065   9.773   8.146   1.621
29740SOL     OW94066   9.805   7.560   1.653
29740SOL    HW194067   9.764   7.474   1.643
29740SOL    HW294068   9.758   7.599   1.727
29741SOL     OW94069   9.841   8.369   0.992
29741SOL    HW194070   9.852   8.418   0.910
29741SOL    HW294071   9.915   8.308   0.993
29742SOL     OW94072   9.568   7.652   1.262
29742SOL    HW194073   9.534   7.672   1.349
29742SOL    HW294074   9.563   7.557   1.255
29743SOL     OW94075   9.352   8.751   1.269
29743SOL    HW194076   9.372   8.700   1.348
29743SOL    HW294077   9.366   8.842   1.295
29744SOL     OW94078   9.623   7.505   0.630
29744SOL    HW194079   9.592   7.593   0.650
29744SOL    HW294080   9.628   7.461   0.714
29745SOL     OW94081   9.665   8.401   1.837
29745SOL    HW194082   9.706   8.484   1.812
29745SOL    HW294083   9.693   8.340   1.769
29746SOL     OW94084   9.587   8.261   0.932
29746SOL    HW194085   9.679   8.274   0.911
29746SOL    HW294086   9.582   8.172   0.967
29747SOL     OW94087   9.617   7.991   1.011
29747SOL    HW194088   9.575   7.905   1.002
29747SOL    HW294089   9.705   7.979   0.977
29748SOL     OW94090   9.302   8.721   0.160
29748SOL    HW194091   9.211   8.745   0.142
29748SOL    HW294092   9.296   8.651   0.225
29749SOL     OW94093   9.364   9.219   0.934
29749SOL    HW194094   9.341   9.139   0.886
29749SOL    HW294095   9.459   9.225   0.923
29750SOL     OW94096   9.349   8.043   1.112
29750SOL    HW194097   9.436   8.031   1.073
29750SOL    HW294098   9.366   8.046   1.206
29751SOL     OW94099   9.494   7.962   1.734
29751SOL    HW194100   9.569   7.927   1.686
29751SOL    HW294101   9.470   8.041   1.686
29752SOL     OW94102   0.074   8.066   0.311
29752SOL    HW194103   0.109   7.978   0.293
29752SOL    HW294104   0.097   8.082   0.402
29753SOL     OW94105   9.540   8.954   1.722
29753SOL    HW194106   9.532   9.049   1.737
29753SOL    HW294107   9.551   8.917   1.810
29754SOL     OW94108   9.754   7.934   0.108
29754SOL    HW194109   9.790   8.015   0.144
29754SOL    HW294110   9.660   7.949   0.105
29755SOL     OW94111   9.417   8.605   1.502
29755SOL    HW194112   9.419   8.539   1.570
29755SOL    HW294113   9.498   8.655   1.516
29756SOL     OW94114   9.452   8.559   1.093
29756SOL    HW194115   9.425   8.630   1.150
29756SOL    HW294116   9.372   8.532   1.048
29757SOL     OW94117   9.905   9.087   1.630
29757SOL    HW194118   9.868   9.154   1.687
29757SOL    HW294119   9.990   9.122   1.604
29758SOL     OW94120   9.471   9.216   1.798
29758SOL    HW194121   9.422   9.154   1.852
29758SOL    HW294122   9.513   9.275   1.861
29759SOL     OW94123   9.553   7.758   0.720
29759SOL    HW194124   9.467   7.792   0.696
29759SOL    HW294125   9.551   7.752   0.815
29760SOL     OW94126   9.630   8.775   1.538
29760SOL    HW194127   9.653   8.816   1.455
29760SOL    HW294128   9.599   8.847   1.593
29761SOL     OW94129   9.956   8.921   0.333
29761SOL    HW194130   9.999   8.900   0.415
29761SOL    HW294131   9.882   8.976   0.357
29762SOL     OW94132   9.567   8.782   0.228
29762SOL    HW194133   9.479   8.765   0.193
29762SOL    HW294134   9.551   8.836   0.306
29763SOL     OW94135   9.409   8.436   1.721
29763SOL    HW194136   9.332   8.436   1.778
29763SOL    HW294137   9.483   8.428   1.781
29764SOL     OW94138   9.924   7.707   1.460
29764SOL    HW194139   0.008   7.738   1.493
29764SOL    HW294140   9.891   7.649   1.529
29765SOL     OW94141   9.404   7.724   0.038
29765SOL    HW194142   9.315   7.750   0.016
29765SOL    HW294143   9.450   7.807   0.054
29766SOL     OW94144   9.382   7.551   0.262
29766SOL    HW194145   9.384   7.614   0.191
29766SOL    HW294146   9.468   7.508   0.258
29767SOL     OW94147   9.939   8.315   1.422
29767SOL    HW194148   9.995   8.339   1.348
29767SOL    HW294149  10.000   8.291   1.491
29768SOL     OW94150   9.700   9.154   1.451
29768SOL    HW194151   9.626   9.190   1.500
29768SOL    HW294152   9.766   9.135   1.518
29769SOL     OW94153   9.839   8.172   0.758
29769SOL    HW194154   9.917   8.226   0.752
29769SOL    HW294155   9.796   8.181   0.673
29770SOL     OW94156   9.589   8.781   1.957
29770SOL    HW194157   9.495   8.763   1.955
29770SOL    HW294158   9.605   8.816   2.045
29771SOL     OW94159   9.461   8.680   0.623
29771SOL    HW194160   9.500   8.641   0.701
29771SOL    HW294161   9.505   8.638   0.550
29772SOL     OW94162   9.957   8.813   1.606
29772SOL    HW194163   9.886   8.767   1.651
29772SOL    HW294164   9.937   8.906   1.619
29773SOL     OW94165   9.763   7.852   0.555
29773SOL    HW194166   9.762   7.803   0.473
29773SOL    HW294167   9.693   7.813   0.608
29774SOL     OW94168   9.636   8.038   1.298
29774SOL    HW194169   9.676   7.979   1.362
29774SOL    HW294170   9.661   8.002   1.213
29775SOL     OW94171   9.320   8.488   0.323
29775SOL    HW194172   9.404   8.521   0.357
29775SOL    HW294173   9.325   8.393   0.336
29776SOL     OW94174   9.517   8.032   2.005
29776SOL    HW194175   9.430   8.035   2.044
29776SOL    HW294176   9.501   8.016   1.912
29777SOL     OW94177   9.512   7.710   2.777
29777SOL    HW194178   9.560   7.775   2.828
29777SOL    HW294179   9.437   7.688   2.832
29778SOL     OW94180   9.308   7.883   2.476
29778SOL    HW194181   9.240   7.874   2.543
29778SOL    HW294182   9.260   7.894   2.394
29779SOL     OW94183   9.791   8.660   3.043
29779SOL    HW194184   9.741   8.716   2.984
29779SOL    HW294185   9.869   8.710   3.064
29780SOL     OW94186   0.133   8.233   3.779
29780SOL    HW194187   0.195   8.305   3.784
29780SOL    HW294188   0.049   8.272   3.803
29781SOL     OW94189   9.623   8.816   2.884
29781SOL    HW194190   9.539   8.777   2.905
29781SOL    HW294191   9.606   8.872   2.809
29782SOL     OW94192   9.762   7.771   3.341
29782SOL    HW194193   9.759   7.842   3.276
29782SOL    HW294194   9.671   7.746   3.353
29783SOL     OW94195   9.555   9.179   2.256
29783SOL    HW194196   9.554   9.237   2.333
29783SOL    HW294197   9.646   9.150   2.250
29784SOL     OW94198   9.475   8.099   2.409
29784SOL    HW194199   9.429   8.019   2.434
29784SOL    HW294200   9.458   8.160   2.481
29785SOL     OW94201   9.370   9.021   1.959
29785SOL    HW194202   9.347   8.931   1.980
29785SOL    HW294203   9.335   9.073   2.032
29786SOL     OW94204   9.390   8.114   3.524
29786SOL    HW194205   9.461   8.175   3.504
29786SOL    HW294206   9.338   8.110   3.444
29787SOL     OW94207   9.885   8.827   2.635
29787SOL    HW194208   9.831   8.749   2.643
29787SOL    HW294209   9.867   8.861   2.547
29788SOL     OW94210   9.489   8.354   3.097
29788SOL    HW194211   9.486   8.327   3.006
29788SOL    HW294212   9.417   8.306   3.139
29789SOL     OW94213   9.635   7.724   3.700
29789SOL    HW194214   9.681   7.783   3.760
29789SOL    HW294215   9.601   7.782   3.631
29790SOL     OW94216   9.885   8.163   2.114
29790SOL    HW194217   9.840   8.242   2.082
29790SOL    HW294218   9.841   8.142   2.196
29791SOL     OW94219   9.418   8.284   2.598
29791SOL    HW194220   9.501   8.309   2.636
29791SOL    HW294221   9.363   8.259   2.673
29792SOL     OW94222   9.831   7.640   2.760
29792SOL    HW194223   9.856   7.624   2.852
29792SOL    HW294224   9.834   7.735   2.751
29793SOL     OW94225   9.620   9.158   2.655
29793SOL    HW194226   9.576   9.075   2.638
29793SOL    HW294227   9.701   9.134   2.701
29794SOL     OW94228   9.611   8.409   2.114
29794SOL    HW194229   9.630   8.402   2.020
29794SOL    HW294230   9.548   8.339   2.131
29795SOL     OW94231   9.605   8.715   3.561
29795SOL    HW194232   9.659   8.718   3.482
29795SOL    HW294233   9.544   8.788   3.552
29796SOL     OW94234   9.463   7.720   3.320
29796SOL    HW194235   9.475   7.781   3.393
29796SOL    HW294236   9.432   7.639   3.362
29797SOL     OW94237   9.821   9.133   2.222
29797SOL    HW194238   9.841   9.218   2.260
29797SOL    HW294239   9.887   9.121   2.153
29798SOL     OW94240   9.629   9.115   3.015
29798SOL    HW194241   9.700   9.089   2.955
29798SOL    HW294242   9.566   9.161   2.960
29799SOL     OW94243   9.745   8.095   2.343
29799SOL    HW194244   9.764   8.003   2.360
29799SOL    HW294245   9.651   8.104   2.356
29800SOL     OW94246   0.151   8.888   2.692
29800SOL    HW194247   0.187   8.873   2.605
29800SOL    HW294248   0.059   8.864   2.685
29801SOL     OW94249   9.928   7.487   2.388
29801SOL    HW194250   9.907   7.569   2.432
29801SOL    HW294251   9.970   7.513   2.306
29802SOL     OW94252   9.606   7.498   2.038
29802SOL    HW194253   9.655   7.560   1.984
29802SOL    HW294254   9.672   7.460   2.096
29803SOL     OW94255   9.779   8.553   2.605
29803SOL    HW194256   9.741   8.491   2.667
29803SOL    HW294257   9.725   8.544   2.527
29804SOL     OW94258   9.860   7.600   3.031
29804SOL    HW194259   9.904   7.593   3.116
29804SOL    HW294260   9.769   7.617   3.051
29805SOL     OW94261   9.832   7.692   2.168
29805SOL    HW194262   9.912   7.642   2.153
29805SOL    HW294263   9.831   7.758   2.098
29806SOL     OW94264   9.745   8.230   3.088
29806SOL    HW194265   9.788   8.264   3.167
29806SOL    HW294266   9.660   8.275   3.086
29807SOL     OW94267   9.646   8.560   2.352
29807SOL    HW194268   9.703   8.633   2.325
29807SOL    HW294269   9.648   8.499   2.278
29808SOL     OW94270   9.858   7.924   2.761
29808SOL    HW194271   9.846   8.004   2.711
29808SOL    HW294272   9.919   7.947   2.831
29809SOL     OW94273   9.665   8.202   3.481
29809SOL    HW194274   9.717   8.238   3.409
29809SOL    HW294275   9.718   8.219   3.559
29810SOL     OW94276   9.799   7.515   3.626
29810SOL    HW194277   9.746   7.453   3.576
29810SOL    HW294278   9.741   7.591   3.638
29811SOL     OW94279   9.945   8.340   2.917
29811SOL    HW194280   9.912   8.430   2.925
29811SOL    HW294281   9.880   8.286   2.963
29812SOL     OW94282   9.595   7.617   3.104
29812SOL    HW194283   9.554   7.659   3.180
29812SOL    HW294284   9.560   7.528   3.105
29813SOL     OW94285   9.363   8.806   3.152
29813SOL    HW194286   9.375   8.723   3.198
29813SOL    HW294287   9.365   8.783   3.059
29814SOL     OW94288   9.542   7.464   2.500
29814SOL    HW194289   9.547   7.559   2.495
29814SOL    HW294290   9.590   7.441   2.580
29815SOL     OW94291   9.645   8.320   2.745
29815SOL    HW194292   9.709   8.256   2.713
29815SOL    HW294293   9.592   8.271   2.808
29816SOL     OW94294   9.612   7.934   2.900
29816SOL    HW194295   9.570   8.020   2.890
29816SOL    HW294296   9.692   7.940   2.847
29817SOL     OW94297   9.316   8.751   1.995
29817SOL    HW194298   9.225   8.772   1.973
29817SOL    HW294299   9.309   8.670   2.046
29818SOL     OW94300   9.427   9.224   2.836
29818SOL    HW194301   9.366   9.156   2.809
29818SOL    HW294302   9.498   9.220   2.772
29819SOL     OW94303   9.830   9.064   2.806
29819SOL    HW194304   9.917   9.104   2.811
29819SOL    HW294305   9.844   8.978   2.767
29820SOL     OW94306   9.553   7.899   3.505
29820SOL    HW194307   9.632   7.942   3.471
29820SOL    HW294308   9.491   7.971   3.520
29821SOL     OW94309   9.765   7.918   2.006
29821SOL    HW194310   9.825   7.990   2.027
29821SOL    HW294311   9.678   7.955   2.018
29822SOL     OW94312   9.430   8.563   3.278
29822SOL    HW194313   9.426   8.505   3.353
29822SOL    HW294314   9.449   8.506   3.204
29823SOL     OW94315   9.364   9.273   3.802
29823SOL    HW194316   9.377   9.246   3.711
29823SOL    HW294317   9.317   9.356   3.796
29824SOL     OW94318   9.551   7.743   2.512
29824SOL    HW194319   9.470   7.789   2.490
29824SOL    HW294320   9.548   7.732   2.607
29825SOL     OW94321   9.660   8.729   3.281
29825SOL    HW194322   9.711   8.700   3.205
29825SOL    HW294323   9.582   8.674   3.279
29826SOL     OW94324   9.900   8.897   2.353
29826SOL    HW194325   9.898   8.850   2.269
29826SOL    HW294326   9.859   8.981   2.334
29827SOL     OW94327   9.581   8.879   2.220
29827SOL    HW194328   9.560   8.971   2.204
29827SOL    HW294329   9.589   8.873   2.316
29828SOL     OW94330   9.970   7.605   3.291
29828SOL    HW194331   0.044   7.666   3.287
29828SOL    HW294332   9.895   7.660   3.317
29829SOL     OW94333   9.381   7.758   1.904
29829SOL    HW194334   9.288   7.738   1.908
29829SOL    HW294335   9.387   7.830   1.841
29830SOL     OW94336   9.425   7.691   2.171
29830SOL    HW194337   9.423   7.740   2.089
29830SOL    HW294338   9.511   7.649   2.172
29831SOL     OW94339   9.868   8.319   3.316
29831SOL    HW194340   9.887   8.412   3.305
29831SOL    HW294341   9.952   8.280   3.338
29832SOL     OW94342   9.822   8.152   2.611
29832SOL    HW194343   9.908   8.193   2.618
29832SOL    HW294344   9.806   8.147   2.517
29833SOL     OW94345   0.008   8.774   3.552
29833SOL    HW194346   0.005   8.818   3.636
29833SOL    HW294347   0.020   8.844   3.488
29834SOL     OW94348   9.788   7.828   2.399
29834SOL    HW194349   9.795   7.777   2.318
29834SOL    HW294350   9.708   7.797   2.441
29835SOL     OW94351   9.701   7.963   3.159
29835SOL    HW194352   9.725   8.054   3.144
29835SOL    HW294353   9.677   7.930   3.072
29836SOL     OW94354   9.356   8.533   2.170
29836SOL    HW194355   9.447   8.541   2.143
29836SOL    HW294356   9.343   8.438   2.182
29837SOL     OW94357   9.516   8.036   3.821
29837SOL    HW194358   9.519   8.109   3.883
29837SOL    HW294359   9.465   8.069   3.747
29838SOL     OW94360   9.551   7.734   4.714
29838SOL    HW194361   9.578   7.713   4.804
29838SOL    HW294362   9.460   7.704   4.709
29839SOL     OW94363   9.265   7.778   4.406
29839SOL    HW194364   9.282   7.867   4.378
29839SOL    HW294365   9.213   7.740   4.335
29840SOL     OW94366   9.801   8.663   4.928
29840SOL    HW194367   9.757   8.727   4.873
29840SOL    HW294368   9.890   8.658   4.893
29841SOL     OW94369   0.148   8.334   5.700
29841SOL    HW194370   0.106   8.398   5.758
29841SOL    HW294371   0.151   8.377   5.615
29842SOL     OW94372   9.708   8.867   4.764
29842SOL    HW194373   9.678   8.841   4.677
29842SOL    HW294374   9.748   8.953   4.751
29843SOL     OW94375   9.741   7.823   5.170
29843SOL    HW194376   9.813   7.774   5.208
29843SOL    HW294377   9.696   7.761   5.113
29844SOL     OW94378   9.539   9.225   4.262
29844SOL    HW194379   9.524   9.317   4.285
29844SOL    HW294380   9.557   9.227   4.168
29845SOL     OW94381   9.482   8.954   4.325
29845SOL    HW194382   9.517   9.041   4.307
29845SOL    HW294383   9.420   8.968   4.397
29846SOL     OW94384   9.557   8.560   4.568
29846SOL    HW194385   9.593   8.471   4.574
29846SOL    HW294386   9.520   8.576   4.654
29847SOL     OW94387   9.351   8.032   4.338
29847SOL    HW194388   9.327   8.093   4.269
29847SOL    HW294389   9.365   8.087   4.415
29848SOL     OW94390   9.254   9.021   3.769
29848SOL    HW194391   9.297   9.021   3.684
29848SOL    HW294392   9.282   9.102   3.811
29849SOL     OW94393   9.897   8.782   4.437
29849SOL    HW194394   9.893   8.688   4.416
29849SOL    HW294395   9.909   8.825   4.353
29850SOL     OW94396   0.106   7.475   4.213
29850SOL    HW194397   0.110   7.549   4.152
29850SOL    HW294398   0.012   7.462   4.230
29851SOL     OW94399   9.488   8.390   4.997
29851SOL    HW194400   9.568   8.355   4.957
29851SOL    HW294401   9.447   8.441   4.928
29852SOL     OW94402   9.644   7.670   5.475
29852SOL    HW194403   9.695   7.749   5.455
29852SOL    HW294404   9.580   7.699   5.540
29853SOL     OW94405   9.887   8.097   4.032
29853SOL    HW194406   9.888   8.182   3.988
29853SOL    HW294407   9.821   8.106   4.100
29854SOL     OW94408   9.392   8.197   4.566
29854SOL    HW194409   9.480   8.233   4.577
29854SOL    HW294410   9.334   8.272   4.577
29855SOL     OW94411   9.336   9.256   5.310
29855SOL    HW194412   9.359   9.256   5.402
29855SOL    HW294413   9.291   9.339   5.296
29856SOL     OW94414   0.316   7.805   3.892
29856SOL    HW194415   0.348   7.895   3.905
29856SOL    HW294416   0.236   7.816   3.840
29857SOL     OW94417   9.924   7.542   4.646
29857SOL    HW194418   9.910   7.567   4.738
29857SOL    HW294419   9.937   7.625   4.601
29858SOL     OW94420   9.728   8.656   5.434
29858SOL    HW194421   9.718   8.693   5.346
29858SOL    HW294422   9.666   8.705   5.488
29859SOL     OW94423   9.424   7.702   5.251
29859SOL    HW194424   9.342   7.728   5.209
29859SOL    HW294425   9.461   7.783   5.286
29860SOL     OW94426   9.569   9.219   4.949
29860SOL    HW194427   9.628   9.172   5.009
29860SOL    HW294428   9.601   9.198   4.862
29861SOL     OW94429   9.657   8.127   4.188
29861SOL    HW194430   9.570   8.094   4.211
29861SOL    HW294431   9.641   8.194   4.122
29862SOL     OW94432   9.928   7.449   3.851
29862SOL    HW194433   9.956   7.532   3.889
29862SOL    HW294434   9.881   7.474   3.771
29863SOL     OW94435   0.017   8.900   4.660
29863SOL    HW194436   9.970   8.978   4.688
29863SOL    HW294437   9.974   8.873   4.579
29864SOL     OW94438   9.829   7.478   4.215
29864SOL    HW194439   9.750   7.462   4.267
29864SOL    HW294440   9.818   7.567   4.183
29865SOL     OW94441   9.576   7.532   4.002
29865SOL    HW194442   9.647   7.594   4.020
29865SOL    HW294443   9.610   7.478   3.931
29866SOL     OW94444   0.285   7.753   4.179
29866SOL    HW194445   0.216   7.818   4.168
29866SOL    HW294446   0.333   7.755   4.096
29867SOL     OW94447   9.817   8.515   4.346
29867SOL    HW194448   9.729   8.550   4.354
29867SOL    HW294449   9.821   8.479   4.258
29868SOL     OW94450   9.408   8.115   5.135
29868SOL    HW194451   9.480   8.099   5.074
29868SOL    HW294452   9.329   8.095   5.084
29869SOL     OW94453   9.860   7.607   4.905
29869SOL    HW194454   9.920   7.630   4.976
29869SOL    HW294455   9.775   7.638   4.934
29870SOL     OW94456   9.787   7.711   4.040
29870SOL    HW194457   9.880   7.694   4.027
29870SOL    HW294458   9.767   7.785   3.983
29871SOL     OW94459   9.725   8.280   4.899
29871SOL    HW194460   9.781   8.318   4.967
29871SOL    HW294461   9.703   8.193   4.932
29872SOL     OW94462   9.434   8.987   5.050
29872SOL    HW194463   9.427   9.074   5.009
29872SOL    HW294464   9.528   8.973   5.059
29873SOL     OW94465   9.903   8.059   4.580
29873SOL    HW194466   9.856   8.106   4.512
29873SOL    HW294467   9.986   8.106   4.588
29874SOL     OW94468   9.716   8.974   5.023
29874SOL    HW194469   9.714   8.947   4.931
29874SOL    HW294470   9.801   9.017   5.034
29875SOL     OW94471   9.657   8.264   5.275
29875SOL    HW194472   9.727   8.300   5.221
29875SOL    HW294473   9.686   8.176   5.296
29876SOL     OW94474   9.810   7.428   5.465
29876SOL    HW194475   9.748   7.386   5.406
29876SOL    HW294476   9.789   7.521   5.460
29877SOL     OW94477   9.992   8.401   4.814
29877SOL    HW194478   0.018   8.491   4.794
29877SOL    HW294479   9.897   8.401   4.804
29878SOL     OW94480   9.595   7.665   4.995
29878SOL    HW194481   9.511   7.693   5.032
29878SOL    HW294482   9.584   7.571   4.979
29879SOL     OW94483   9.272   8.769   4.995
29879SOL    HW194484   9.271   8.733   5.084
29879SOL    HW294485   9.330   8.845   5.001
29880SOL     OW94486   9.597   7.451   4.361
29880SOL    HW194487   9.565   7.540   4.374
29880SOL    HW294488   9.631   7.425   4.447
29881SOL     OW94489   9.674   8.403   5.521
29881SOL    HW194490   9.703   8.490   5.496
29881SOL    HW294491   9.678   8.352   5.439
29882SOL     OW94492   9.642   8.299   4.622
29882SOL    HW194493   9.709   8.277   4.557
29882SOL    HW294494   9.686   8.287   4.706
29883SOL     OW94495   9.684   7.976   4.750
29883SOL    HW194496   9.654   7.894   4.711
29883SOL    HW294497   9.756   8.005   4.694
29884SOL     OW94498   9.389   8.730   3.933
29884SOL    HW194499   9.309   8.770   3.899
29884SOL    HW294500   9.359   8.676   4.006
29885SOL     OW94501   9.383   9.206   4.664
29885SOL    HW194502   9.360   9.140   4.599
29885SOL    HW294503   9.477   9.192   4.680
29886SOL     OW94504   9.401   8.035   4.790
29886SOL    HW194505   9.381   8.086   4.711
29886SOL    HW294506   9.494   8.014   4.783
29887SOL     OW94507   9.538   7.943   5.317
29887SOL    HW194508   9.615   7.923   5.265
29887SOL    HW294509   9.492   8.011   5.268
29888SOL     OW94510   0.103   7.935   4.068
29888SOL    HW194511   0.171   7.986   4.023
29888SOL    HW294512   0.024   7.989   4.060
29889SOL     OW94513   9.520   9.016   5.490
29889SOL    HW194514   9.520   9.074   5.566
29889SOL    HW294515   9.546   8.931   5.526
29890SOL     OW94516   9.761   7.919   3.862
29890SOL    HW194517   9.813   7.985   3.908
29890SOL    HW294518   9.678   7.963   3.844
29891SOL     OW94519   9.479   8.573   5.200
29891SOL    HW194520   9.549   8.639   5.211
29891SOL    HW294521   9.489   8.543   5.110
29892SOL     OW94522   9.390   8.554   4.803
29892SOL    HW194523   9.345   8.634   4.829
29892SOL    HW294524   9.333   8.516   4.736
29893SOL     OW94525   9.936   9.027   5.368
29893SOL    HW194526   9.907   9.116   5.388
29893SOL    HW294527   9.982   9.035   5.285
29894SOL     OW94528   9.530   7.707   4.436
29894SOL    HW194529   9.439   7.736   4.423
29894SOL    HW294530   9.548   7.726   4.528
29895SOL     OW94531   9.696   8.741   5.173
29895SOL    HW194532   9.698   8.835   5.154
29895SOL    HW294533   9.740   8.700   5.099
29896SOL     OW94534   9.971   9.052   4.123
29896SOL    HW194535   0.042   8.988   4.128
29896SOL    HW294536   0.004   9.129   4.168
29897SOL     OW94537   9.613   8.900   3.976
29897SOL    HW194538   9.536   8.853   3.944
29897SOL    HW294539   9.594   8.917   4.068
29898SOL     OW94540   9.407   8.347   5.461
29898SOL    HW194541   9.334   8.363   5.521
29898SOL    HW294542   9.484   8.377   5.508
29899SOL     OW94543   9.943   7.662   5.284
29899SOL    HW194544   0.025   7.687   5.242
29899SOL    HW294545   9.942   7.711   5.367
29900SOL     OW94546   9.331   7.662   4.013
29900SOL    HW194547   9.357   7.749   4.043
29900SOL    HW294548   9.412   7.611   4.015
29901SOL     OW94549   9.868   8.354   5.126
29901SOL    HW194550   9.882   8.445   5.150
29901SOL    HW294551   9.955   8.321   5.102
29902SOL     OW94552   9.590   9.149   5.261
29902SOL    HW194553   9.509   9.200   5.253
29902SOL    HW294554   9.578   9.098   5.341
29903SOL     OW94555   9.802   8.239   4.400
29903SOL    HW194556   9.828   8.328   4.378
29903SOL    HW294557   9.761   8.205   4.321
29904SOL     OW94558   9.567   8.775   5.622
29904SOL    HW194559   9.476   8.760   5.646
29904SOL    HW294560   9.607   8.809   5.703
29905SOL     OW94561   9.401   8.685   4.375
29905SOL    HW194562   9.462   8.646   4.438
29905SOL    HW294563   9.442   8.767   4.350
29906SOL     OW94564   9.938   8.810   5.533
29906SOL    HW194565   9.873   8.754   5.490
29906SOL    HW294566   9.939   8.890   5.480
29907SOL     OW94567   9.775   7.766   4.318
29907SOL    HW194568   9.766   7.781   4.224
29907SOL    HW294569   9.685   7.758   4.350
29908SOL     OW94570   9.649   8.035   5.013
29908SOL    HW194571   9.699   7.970   5.064
29908SOL    HW294572   9.660   8.008   4.922
29909SOL     OW94573   9.310   8.527   4.101
29909SOL    HW194574   9.375   8.508   4.169
29909SOL    HW294575   9.329   8.465   4.031
29910SOL     OW94576   9.515   7.996   5.666
29910SOL    HW194577   9.446   8.011   5.730
29910SOL    HW294578   9.510   8.070   5.606
29911SOL     OW94579   9.540   7.733   6.560
29911SOL    HW194580   9.581   7.691   6.636
29911SOL    HW294581   9.450   7.700   6.560
29912SOL     OW94582   9.284   7.845   6.231
29912SOL    HW194583   9.205   7.872   6.279
29912SOL    HW294584   9.257   7.768   6.182
29913SOL     OW94585   9.630   8.860   6.684
29913SOL    HW194586   9.636   8.940   6.632
29913SOL    HW294587   9.719   8.845   6.717
29914SOL     OW94588   9.491   8.846   6.198
29914SOL    HW194589   9.583   8.855   6.173
29914SOL    HW294590   9.452   8.930   6.175
29915SOL     OW94591   9.580   8.520   6.454
29915SOL    HW194592   9.600   8.432   6.485
29915SOL    HW294593   9.546   8.565   6.531
29916SOL     OW94594   9.421   8.085   6.159
29916SOL    HW194595   9.374   8.003   6.176
29916SOL    HW294596   9.414   8.135   6.240
29917SOL     OW94597   9.280   9.035   5.792
29917SOL    HW194598   9.298   8.942   5.783
29917SOL    HW294599   9.366   9.077   5.781
29918SOL     OW94600   9.459   8.130   7.224
29918SOL    HW194601   9.546   8.104   7.252
29918SOL    HW294602   9.454   8.223   7.244
29919SOL     OW94603   9.888   8.844   6.338
29919SOL    HW194604   9.841   8.761   6.334
29919SOL    HW294605   9.878   8.881   6.250
29920SOL     OW94606   0.127   7.422   6.071
29920SOL    HW194607   0.189   7.474   6.122
29920SOL    HW294608   0.043   7.465   6.085
29921SOL     OW94609   9.464   8.435   6.852
29921SOL    HW194610   9.551   8.394   6.860
29921SOL    HW294611   9.473   8.494   6.777
29922SOL     OW94612   9.575   7.651   7.340
29922SOL    HW194613   9.598   7.729   7.290
29922SOL    HW294614   9.525   7.597   7.279
29923SOL     OW94615   9.825   8.181   5.864
29923SOL    HW194616   9.811   8.274   5.842
29923SOL    HW294617   9.776   8.168   5.945
29924SOL     OW94618   9.404   8.217   6.397
29924SOL    HW194619   9.483   8.238   6.446
29924SOL    HW294620   9.343   8.288   6.417
29925SOL     OW94621   9.414   9.293   7.151
29925SOL    HW194622   9.423   9.285   7.246
29925SOL    HW294623   9.341   9.235   7.129
29926SOL     OW94624   0.209   7.815   5.793
29926SOL    HW194625   0.206   7.909   5.776
29926SOL    HW294626   0.267   7.780   5.724
29927SOL     OW94627   9.852   7.581   6.433
29927SOL    HW194628   9.873   7.608   6.522
29927SOL    HW294629   9.890   7.650   6.378
29928SOL     OW94630   9.682   9.221   6.527
29928SOL    HW194631   9.748   9.153   6.528
29928SOL    HW294632   9.727   9.299   6.493
29929SOL     OW94633   9.701   8.469   5.788
29929SOL    HW194634   9.682   8.561   5.771
29929SOL    HW294635   9.692   8.426   5.703
29930SOL     OW94636   9.721   8.572   7.360
29930SOL    HW194637   9.727   8.600   7.268
29930SOL    HW294638   9.669   8.640   7.403
29931SOL     OW94639   9.552   7.759   7.011
29931SOL    HW194640   9.494   7.832   6.987
29931SOL    HW294641   9.601   7.792   7.086
29932SOL     OW94642   9.576   9.232   6.781
29932SOL    HW194643   9.646   9.189   6.831
29932SOL    HW294644   9.604   9.224   6.690
29933SOL     OW94645   9.696   8.122   6.099
29933SOL    HW194646   9.721   8.032   6.121
29933SOL    HW294647   9.602   8.125   6.116
29934SOL     OW94648   9.841   7.426   5.742
29934SOL    HW194649   9.906   7.494   5.758
29934SOL    HW294650   9.840   7.416   5.647
29935SOL     OW94651   0.157   8.814   6.414
29935SOL    HW194652   0.180   8.846   6.327
29935SOL    HW294653   0.062   8.826   6.420
29936SOL     OW94654   9.852   7.496   6.062
29936SOL    HW194655   9.783   7.498   6.129
29936SOL    HW294656   9.851   7.583   6.024
29937SOL     OW94657   9.600   7.557   5.779
29937SOL    HW194658   9.644   7.634   5.814
29937SOL    HW294659   9.670   7.492   5.769
29938SOL     OW94660   0.355   7.814   6.033
29938SOL    HW194661   0.285   7.816   5.968
29938SOL    HW294662   0.433   7.788   5.983
29939SOL     OW94663   9.772   8.600   6.271
29939SOL    HW194664   9.715   8.573   6.343
29939SOL    HW294665   9.719   8.591   6.192
29940SOL     OW94666   9.421   8.005   6.984
29940SOL    HW194667   9.507   8.027   6.950
29940SOL    HW294668   9.416   8.051   7.068
29941SOL     OW94669   9.899   7.638   6.698
29941SOL    HW194670   9.938   7.571   6.754
29941SOL    HW294671   9.810   7.648   6.731
29942SOL     OW94672   9.790   7.735   5.875
29942SOL    HW194673   9.877   7.699   5.858
29942SOL    HW294674   9.787   7.816   5.823
29943SOL     OW94675   9.707   8.312   6.897
29943SOL    HW194676   9.781   8.311   6.957
29943SOL    HW294677   9.681   8.220   6.889
29944SOL     OW94678   9.448   9.012   6.923
29944SOL    HW194679   9.433   9.089   6.869
29944SOL    HW294680   9.543   9.001   6.922
29945SOL     OW94681   9.625   8.576   6.036
29945SOL    HW194682   9.616   8.663   5.999
29945SOL    HW294683   9.661   8.523   5.965
29946SOL     OW94684   9.895   7.983   6.484
29946SOL    HW194685   9.901   8.061   6.428
29946SOL    HW294686   9.955   8.001   6.556
29947SOL     OW94687   9.832   7.552   7.286
29947SOL    HW194688   9.804   7.468   7.251
29947SOL    HW294689   9.750   7.599   7.304
29948SOL     OW94690   9.823   8.435   6.680
29948SOL    HW194691   9.844   8.527   6.695
29948SOL    HW294692   9.786   8.404   6.763
29949SOL     OW94693   9.637   7.613   6.794
29949SOL    HW194694   9.607   7.661   6.871
29949SOL    HW294695   9.605   7.524   6.807
29950SOL     OW94696   9.318   8.766   6.882
29950SOL    HW194697   9.357   8.713   6.951
29950SOL    HW294698   9.365   8.850   6.887
29951SOL     OW94699   9.615   7.486   6.207
29951SOL    HW194700   9.581   7.573   6.228
29951SOL    HW294701   9.627   7.444   6.293
29952SOL     OW94702   9.720   8.315   7.460
29952SOL    HW194703   9.733   8.398   7.415
29952SOL    HW294704   9.717   8.249   7.391
29953SOL     OW94705   9.635   8.267   6.548
29953SOL    HW194706   9.711   8.309   6.588
29953SOL    HW294707   9.646   8.174   6.569
29954SOL     OW94708   9.644   7.986   6.593
29954SOL    HW194709   9.603   7.901   6.575
29954SOL    HW294710   9.730   7.980   6.551
29955SOL     OW94711   9.326   8.751   5.757
29955SOL    HW194712   9.238   8.764   5.722
29955SOL    HW294713   9.319   8.671   5.810
29956SOL     OW94714   9.403   9.235   6.519
29956SOL    HW194715   9.364   9.162   6.470
29956SOL    HW294716   9.497   9.227   6.504
29957SOL     OW94717   9.870   9.018   6.553
29957SOL    HW194718   9.877   8.957   6.627
29957SOL    HW294719   9.872   8.962   6.475
29958SOL     OW94720   9.352   7.991   6.710
29958SOL    HW194721   9.423   8.014   6.650
29958SOL    HW294722   9.388   8.011   6.797
29959SOL     OW94723   0.065   8.066   5.951
29959SOL    HW194724   0.124   8.079   5.877
29959SOL    HW294725   9.983   8.107   5.924
29960SOL     OW94726   9.537   8.941   7.274
29960SOL    HW194727   9.595   9.015   7.256
29960SOL    HW294728   9.571   8.904   7.355
29961SOL     OW94729   9.789   7.954   5.704
29961SOL    HW194730   9.816   8.032   5.751
29961SOL    HW294731   9.695   7.967   5.687
29962SOL     OW94732   9.411   8.571   7.081
29962SOL    HW194733   9.433   8.515   7.155
29962SOL    HW294734   9.427   8.517   7.004
29963SOL     OW94735   9.466   8.646   6.672
29963SOL    HW194736   9.528   8.718   6.669
29963SOL    HW294737   9.392   8.679   6.724
29964SOL     OW94738   9.449   9.252   7.415
29964SOL    HW194739   9.418   9.167   7.447
29964SOL    HW294740   9.500   9.287   7.488
29965SOL     OW94741   9.535   7.740   6.281
29965SOL    HW194742   9.451   7.783   6.267
29965SOL    HW294743   9.549   7.743   6.375
29966SOL     OW94744   9.732   8.672   7.108
29966SOL    HW194745   9.795   8.670   7.035
29966SOL    HW294746   9.648   8.689   7.066
29967SOL     OW94747   9.879   8.904   6.064
29967SOL    HW194748   9.887   8.862   5.978
29967SOL    HW294749   9.800   8.957   6.057
29968SOL     OW94750   9.585   8.812   5.898
29968SOL    HW194751   9.491   8.821   5.883
29968SOL    HW294752   9.610   8.894   5.941
29969SOL     OW94753   9.449   8.401   7.309
29969SOL    HW194754   9.371   8.406   7.364
29969SOL    HW294755   9.521   8.427   7.366
29970SOL     OW94756   9.401   7.751   5.592
29970SOL    HW194757   9.327   7.776   5.535
29970SOL    HW294758   9.436   7.835   5.623
29971SOL     OW94759   9.337   7.581   5.846
29971SOL    HW194760   9.307   7.644   5.780
29971SOL    HW294761   9.432   7.579   5.835
29972SOL     OW94762   9.951   8.245   7.012
29972SOL    HW194763   0.016   8.281   6.951
29972SOL    HW294764   9.938   8.155   6.982
29973SOL     OW94765   9.667   9.170   7.163
29973SOL    HW194766   9.582   9.206   7.139
29973SOL    HW294767   9.709   9.149   7.079
29974SOL     OW94768   9.900   8.191   6.307
29974SOL    HW194769   9.941   8.275   6.326
29974SOL    HW294770   9.831   8.210   6.244
29975SOL     OW94771   9.585   8.766   7.502
29975SOL    HW194772   9.490   8.764   7.514
29975SOL    HW294773   9.619   8.779   7.591
29976SOL     OW94774   9.378   8.630   6.308
29976SOL    HW194775   9.454   8.587   6.347
29976SOL    HW294776   9.413   8.709   6.267
29977SOL     OW94777   9.888   8.822   7.376
29977SOL    HW194778   9.856   8.734   7.400
29977SOL    HW294779   9.851   8.838   7.289
29978SOL     OW94780   9.740   7.847   6.128
29978SOL    HW194781   9.735   7.808   6.041
29978SOL    HW294782   9.665   7.810   6.175
29979SOL     OW94783   9.661   8.041   6.861
29979SOL    HW194784   9.748   8.017   6.891
29979SOL    HW294785   9.660   8.019   6.768
29980SOL     OW94786   9.346   8.526   5.932
29980SOL    HW194787   9.425   8.545   5.984
29980SOL    HW294788   9.345   8.430   5.925
29981SOL     OW94789   9.562   7.985   7.529
29981SOL    HW194790   9.560   8.068   7.577
29981SOL    HW294791   9.605   8.006   7.446
29982SOL     OW94792   9.503   7.815   8.473
29982SOL    HW194793   9.545   7.779   8.551
29982SOL    HW294794   9.439   7.749   8.447
29983SOL     OW94795   9.305   7.825   8.093
29983SOL    HW194796   9.224   7.850   8.137
29983SOL    HW294797   9.281   7.749   8.040
29984SOL     OW94798   9.765   8.805   8.592
29984SOL    HW194799   9.706   8.871   8.629
29984SOL    HW294800   9.832   8.792   8.659
29985SOL     OW94801   0.081   8.192   9.311
29985SOL    HW194802   0.163   8.241   9.312
29985SOL    HW294803   0.051   8.196   9.220
29986SOL     OW94804   9.710   7.850   8.985
29986SOL    HW194805   9.788   7.796   8.971
29986SOL    HW294806   9.637   7.788   8.989
29987SOL     OW94807   9.545   9.154   7.898
29987SOL    HW194808   9.566   9.229   7.953
29987SOL    HW294809   9.618   9.149   7.835
29988SOL     OW94810   9.457   8.927   8.026
29988SOL    HW194811   9.485   9.010   7.987
29988SOL    HW294812   9.471   8.940   8.120
29989SOL     OW94813   9.565   8.525   8.368
29989SOL    HW194814   9.634   8.524   8.434
29989SOL    HW294815   9.505   8.593   8.396
29990SOL     OW94816   9.429   8.080   8.015
29990SOL    HW194817   9.381   8.000   8.036
29990SOL    HW294818   9.430   8.129   8.097
29991SOL     OW94819   9.365   9.027   7.547
29991SOL    HW194820   9.342   8.935   7.559
29991SOL    HW294821   9.332   9.070   7.626
29992SOL     OW94822   9.480   8.192   9.022
29992SOL    HW194823   9.573   8.215   9.024
29992SOL    HW294824   9.436   8.267   9.062
29993SOL     OW94825   9.909   8.797   8.178
29993SOL    HW194826   9.870   8.710   8.191
29993SOL    HW294827   9.922   8.803   8.083
29994SOL     OW94828   0.115   7.406   7.942
29994SOL    HW194829   0.178   7.462   7.988
29994SOL    HW294830   0.031   7.450   7.953
29995SOL     OW94831   9.453   8.411   8.728
29995SOL    HW194832   9.531   8.356   8.729
29995SOL    HW294833   9.426   8.414   8.636
29996SOL     OW94834   9.652   7.717   9.275
29996SOL    HW194835   9.693   7.780   9.335
29996SOL    HW294836   9.560   7.715   9.302
29997SOL     OW94837   9.462   8.210   8.264
29997SOL    HW194838   9.524   8.272   8.304
29997SOL    HW294839   9.378   8.255   8.268
29998SOL     OW94840   9.409   9.323   9.037
29998SOL    HW194841   9.423   9.302   9.129
29998SOL    HW294842   9.412   9.239   8.992
29999SOL     OW94843   0.253   7.886   7.679
29999SOL    HW194844   0.339   7.927   7.679
29999SOL    HW294845   0.249   7.837   7.596
30000SOL     OW94846   9.779   7.668   8.382
30000SOL    HW194847   9.808   7.673   8.473
30000SOL    HW294848   9.804   7.752   8.344
30001SOL     OW94849   9.704   8.465   7.712
30001SOL    HW194850   9.786   8.514   7.713
30001SOL    HW294851   9.708   8.415   7.630
30002SOL     OW94852   9.743   8.660   9.166
30002SOL    HW194853   9.728   8.693   9.077
30002SOL    HW294854   9.684   8.712   9.221
30003SOL     OW94855   9.478   7.699   8.972
30003SOL    HW194856   9.411   7.752   9.015
30003SOL    HW294857   9.455   7.609   8.996
30004SOL     OW94858   9.782   9.172   7.740
30004SOL    HW194859   9.837   9.222   7.800
30004SOL    HW294860   9.842   9.110   7.698
30005SOL     OW94861   9.698   8.034   7.938
30005SOL    HW194862   9.747   8.100   7.987
30005SOL    HW294863   9.606   8.062   7.944
30006SOL     OW94864   9.830   7.462   7.558
30006SOL    HW194865   9.905   7.504   7.600
30006SOL    HW294866   9.845   7.474   7.465
30007SOL     OW94867   0.185   8.856   8.279
30007SOL    HW194868   0.207   8.862   8.186
30007SOL    HW294869   0.106   8.803   8.282
30008SOL     OW94870   9.857   7.527   7.962
30008SOL    HW194871   9.787   7.495   8.019
30008SOL    HW294872   9.847   7.622   7.963
30009SOL     OW94873   9.565   7.514   7.630
30009SOL    HW194874   9.654   7.495   7.600
30009SOL    HW294875   9.561   7.477   7.718
30010SOL     OW94876   0.180   7.735   7.895
30010SOL    HW194877   0.198   7.791   7.820
30010SOL    HW294878   0.264   7.729   7.941
30011SOL     OW94879   9.768   8.545   8.179
30011SOL    HW194880   9.691   8.540   8.236
30011SOL    HW294881   9.732   8.559   8.091
30012SOL     OW94882   9.432   8.011   8.813
30012SOL    HW194883   9.524   7.995   8.794
30012SOL    HW294884   9.433   8.077   8.882
30013SOL     OW94885   9.829   7.704   8.652
30013SOL    HW194886   9.876   7.695   8.735
30013SOL    HW294887   9.737   7.693   8.675
30014SOL     OW94888   9.763   7.736   7.675
30014SOL    HW194889   9.837   7.679   7.697
30014SOL    HW294890   9.803   7.819   7.648
30015SOL     OW94891   9.680   8.259   8.719
30015SOL    HW194892   9.757   8.304   8.755
30015SOL    HW294893   9.694   8.167   8.739
30016SOL     OW94894   9.367   8.978   8.809
30016SOL    HW194895   9.321   9.055   8.774
30016SOL    HW294896   9.458   8.991   8.782
30017SOL     OW94897   9.616   8.575   7.947
30017SOL    HW194898   9.599   8.659   7.904
30017SOL    HW294899   9.653   8.520   7.878
30018SOL     OW94900   9.833   7.946   8.324
30018SOL    HW194901   9.881   7.983   8.250
30018SOL    HW294902   9.892   7.957   8.399
30019SOL     OW94903   9.751   8.247   9.047
30019SOL    HW194904   9.792   8.298   8.978
30019SOL    HW294905   9.810   8.173   9.061
30020SOL     OW94906   9.810   7.548   9.125
30020SOL    HW194907   9.752   7.484   9.084
30020SOL    HW294908   9.751   7.605   9.174
30021SOL     OW94909   9.866   8.415   8.408
30021SOL    HW194910   9.865   8.459   8.323
30021SOL    HW294911   9.927   8.466   8.461
30022SOL     OW94912   9.560   7.669   8.706
30022SOL    HW194913   9.528   7.693   8.793
30022SOL    HW294914   9.549   7.574   8.701
30023SOL     OW94915   9.355   8.730   8.697
30023SOL    HW194916   9.385   8.675   8.770
30023SOL    HW294917   9.364   8.819   8.730
30024SOL     OW94918   9.608   7.506   8.094
30024SOL    HW194919   9.606   7.601   8.106
30024SOL    HW294920   9.616   7.471   8.183
30025SOL     OW94921   9.673   8.411   9.271
30025SOL    HW194922   9.707   8.496   9.242
30025SOL    HW294923   9.705   8.349   9.205
30026SOL     OW94924   9.686   8.213   8.448
30026SOL    HW194925   9.756   8.273   8.423
30026SOL    HW294926   9.675   8.227   8.542
30027SOL     OW94927   9.323   8.753   7.618
30027SOL    HW194928   9.233   8.777   7.596
30027SOL    HW294929   9.317   8.663   7.650
30028SOL     OW94930   9.970   9.043   8.308
30028SOL    HW194931   0.062   9.019   8.318
30028SOL    HW294932   9.930   8.968   8.264
30029SOL     OW94933   9.340   8.020   8.556
30029SOL    HW194934   9.394   7.948   8.521
30029SOL    HW294935   9.374   8.035   8.644
30030SOL     OW94936   9.497   7.968   9.183
30030SOL    HW194937   9.574   7.924   9.146
30030SOL    HW294938   9.482   8.042   9.125
30031SOL     OW94939   0.064   8.083   7.705
30031SOL    HW194940   0.136   8.020   7.696
30031SOL    HW294941   0.068   8.113   7.795
30032SOL     OW94942   9.535   9.010   9.155
30032SOL    HW194943   9.519   9.085   9.212
30032SOL    HW294944   9.560   8.939   9.214
30033SOL     OW94945   9.874   7.953   7.562
30033SOL    HW194946   9.926   8.010   7.618
30033SOL    HW294947   9.822   8.012   7.508
30034SOL     OW94948   9.399   8.578   8.932
30034SOL    HW194949   9.418   8.539   9.017
30034SOL    HW294950   9.432   8.515   8.868
30035SOL     OW94951   9.389   8.723   8.422
30035SOL    HW194952   9.379   8.732   8.517
30035SOL    HW294953   9.377   8.812   8.388
30036SOL     OW94954   9.945   8.997   9.073
30036SOL    HW194955   9.868   9.048   9.048
30036SOL    HW294956   0.003   9.003   8.997
30037SOL     OW94957   9.462   9.236   9.293
30037SOL    HW194958   9.405   9.175   9.341
30037SOL    HW294959   9.513   9.280   9.361
30038SOL     OW94960   9.558   7.831   8.201
30038SOL    HW194961   9.471   7.825   8.160
30038SOL    HW294962   9.547   7.787   8.286
30039SOL     OW94963   9.647   8.766   8.925
30039SOL    HW194964   9.651   8.840   8.865
30039SOL    HW294965   9.558   8.732   8.917
30040SOL     OW94966   9.936   8.801   7.894
30040SOL    HW194967   9.943   8.720   7.843
30040SOL    HW294968   9.876   8.855   7.843
30041SOL     OW94969   9.533   8.792   7.798
30041SOL    HW194970   9.456   8.792   7.741
30041SOL    HW294971   9.506   8.844   7.874
30042SOL     OW94972   9.411   8.427   9.164
30042SOL    HW194973   9.338   8.437   9.225
30042SOL    HW294974   9.489   8.427   9.220
30043SOL     OW94975   9.926   7.682   8.914
30043SOL    HW194976   0.020   7.696   8.926
30043SOL    HW294977   9.901   7.624   8.986
30044SOL     OW94978   9.345   7.816   7.513
30044SOL    HW194979   9.295   7.802   7.433
30044SOL    HW294980   9.383   7.903   7.503
30045SOL     OW94981   9.906   8.365   8.843
30045SOL    HW194982   9.932   8.450   8.878
30045SOL    HW294983   9.970   8.346   8.775
30046SOL     OW94984   9.712   9.140   8.987
30046SOL    HW194985   9.678   9.126   8.899
30046SOL    HW294986   9.653   9.091   9.044
30047SOL     OW94987   9.824   8.195   8.141
30047SOL    HW194988   9.917   8.203   8.161
30047SOL    HW294989   9.794   8.286   8.130
30048SOL     OW94990   9.571   8.798   9.332
30048SOL    HW194991   9.479   8.783   9.351
30048SOL    HW294992   9.614   8.799   9.418
30049SOL     OW94993   9.399   8.584   8.132
30049SOL    HW194994   9.456   8.596   8.208
30049SOL    HW294995   9.459   8.580   8.057
30050SOL     OW94996   9.981   8.791   9.252
30050SOL    HW194997   9.914   8.731   9.219
30050SOL    HW294998   9.976   8.867   9.194
30051SOL     OW94999   9.768   7.787   8.024
30051SOL    HW195000   9.754   7.860   7.965
30051SOL    HW295001   9.705   7.800   8.094
30052SOL     OW95002   9.710   7.989   8.751
30052SOL    HW195003   9.719   7.947   8.837
30052SOL    HW295004   9.783   7.954   8.700
30053SOL     OW95005   9.356   8.509   7.761
30053SOL    HW195006   9.451   8.523   7.757
30053SOL    HW295007   9.346   8.414   7.765
30054SOL     OW95008   9.512   8.060   9.444
30054SOL    HW195009   9.423   8.047   9.477
30054SOL    HW295010   9.506   8.044   9.350
30055SOL     OW95011   9.514   9.176   9.786
30055SOL    HW195012   9.522   9.257   9.835
30055SOL    HW295013   9.599   9.166   9.743
30056SOL     OW95014   9.570   8.910   9.845
30056SOL    HW195015   9.536   8.999   9.844
30056SOL    HW295016   9.497   8.856   9.875
30057SOL     OW95017   9.385   8.164   9.885
30057SOL    HW195018   9.297   8.130   9.869
30057SOL    HW295019   9.371   8.241   9.940
30058SOL     OW95020   9.337   9.038   9.428
30058SOL    HW195021   9.328   8.944   9.445
30058SOL    HW295022   9.306   9.080   9.509
30059SOL     OW95023   0.150   7.478   9.859
30059SOL    HW195024   0.176   7.563   9.822
30059SOL    HW295025   0.055   7.483   9.867
30060SOL     OW95026   9.921   8.119   9.527
30060SOL    HW195027   9.976   8.149   9.455
30060SOL    HW295028   9.891   8.199   9.569
30061SOL     OW95029   9.370   8.378   0.065
30061SOL    HW195030   9.459   8.360   0.094
30061SOL    HW295031   9.330   8.427   0.137
30062SOL     OW95032   0.204   7.833   9.504
30062SOL    HW195033   0.260   7.902   9.469
30062SOL    HW295034   0.157   7.799   9.428
30063SOL     OW95035   9.646   9.314   0.167
30063SOL    HW195036   9.663   9.248   0.235
30063SOL    HW295037   9.732   9.352   0.149
30064SOL     OW95038   9.645   8.400   9.557
30064SOL    HW195039   9.658   8.400   9.463
30064SOL    HW295040   9.631   8.308   9.579
30065SOL     OW95041   9.771   9.163   9.664
30065SOL    HW195042   9.798   9.239   9.716
30065SOL    HW295043   9.849   9.140   9.613
30066SOL     OW95044   9.650   8.165   9.792
30066SOL    HW195045   9.670   8.071   9.791
30066SOL    HW295046   9.559   8.171   9.820
30067SOL     OW95047   9.873   7.560   9.410
30067SOL    HW195048   9.959   7.542   9.448
30067SOL    HW295049   9.884   7.541   9.317
30068SOL     OW95050   9.848   7.535   9.838
30068SOL    HW195051   9.758   7.530   9.869
30068SOL    HW295052   9.847   7.604   9.771
30069SOL     OW95053   9.610   7.487   9.483
30069SOL    HW195054   9.677   7.539   9.438
30069SOL    HW295055   9.659   7.430   9.542
30070SOL     OW95056   0.248   7.702   9.739
30070SOL    HW195057   0.245   7.751   9.657
30070SOL    HW295058   0.306   7.753   9.796
30071SOL     OW95059   9.807   7.714   9.633
30071SOL    HW195060   9.831   7.654   9.563
30071SOL    HW295061   9.780   7.794   9.587
30072SOL     OW95062   9.717   8.591   9.771
30072SOL    HW195063   9.678   8.657   9.712
30072SOL    HW295064   9.711   8.509   9.722
30073SOL     OW95065   9.582   7.530   9.932
30073SOL    HW195066   9.524   7.604   9.949
30073SOL    HW295067   9.591   7.486   0.017
30074SOL     OW95068   9.329   8.759   9.468
30074SOL    HW195069   9.238   8.771   9.440
30074SOL    HW295070   9.333   8.669   9.500
30075SOL     OW95071   0.048   7.943   9.708
30075SOL    HW195072   0.097   7.895   9.641
30075SOL    HW295073   9.990   8.000   9.658
30076SOL     OW95074   9.744   7.918   9.457
30076SOL    HW195075   9.812   7.982   9.476
30076SOL    HW295076   9.662   7.966   9.464
30077SOL     OW95077   9.868   8.873   9.766
30077SOL    HW195078   9.909   8.861   9.680
30077SOL    HW295079   9.813   8.951   9.755
30078SOL     OW95080   9.586   8.777   9.609
30078SOL    HW195081   9.493   8.772   9.587
30078SOL    HW295082   9.589   8.834   9.685
30079SOL     OW95083   9.379   7.760   9.335
30079SOL    HW195084   9.303   7.738   9.282
30079SOL    HW295085   9.411   7.843   9.298
30080SOL     OW95086   9.362   7.592   9.567
30080SOL    HW195087   9.353   7.660   9.500
30080SOL    HW295088   9.452   7.561   9.557
30081SOL     OW95089   9.891   8.191   9.935
30081SOL    HW195090   9.886   8.263   9.998
30081SOL    HW295091   9.806   8.192   9.890
30082SOL     OW95092   9.388   8.708   9.900
30082SOL    HW195093   9.358   8.709   9.991
30082SOL    HW295094   9.440   8.627   9.893
30083SOL     OW95095   9.700   7.899   9.829
30083SOL    HW195096   9.739   7.824   9.783
30083SOL    HW295097   9.731   7.890   9.919
30084SOL     OW95098   9.391   8.517   9.585
30084SOL    HW195099   9.486   8.504   9.579
30084SOL    HW295100   9.355   8.428   9.583
30085SOL     OW95101   9.501   9.642   1.001
30085SOL    HW195102   9.534   9.605   1.082
30085SOL    HW295103   9.422   9.592   0.981
30086SOL     OW95104   9.256   9.696   0.654
30086SOL    HW195105   9.169   9.711   0.691
30086SOL    HW295106   9.247   9.615   0.603
30087SOL     OW95107   0.141   0.178   1.777
30087SOL    HW195108   0.149   0.088   1.746
30087SOL    HW295109   0.154   0.232   1.698
30088SOL     OW95110   9.802   9.722   1.578
30088SOL    HW195111   9.845   9.777   1.513
30088SOL    HW295112   9.859   9.645   1.586
30089SOL     OW95113   9.323   9.960   0.557
30089SOL    HW195114   9.319   9.876   0.603
30089SOL    HW295115   9.412   9.991   0.575
30090SOL     OW95116   0.111   9.267   0.515
30090SOL    HW195117   0.172   9.309   0.576
30090SOL    HW295118   0.025   9.299   0.543
30091SOL     OW95119   9.633   9.548   1.725
30091SOL    HW195120   9.688   9.622   1.698
30091SOL    HW295121   9.567   9.587   1.783
30092SOL     OW95122   0.179   9.653   0.121
30092SOL    HW195123   0.135   9.690   0.197
30092SOL    HW295124   0.109   9.641   0.056
30093SOL     OW95125   9.880   9.493   0.803
30093SOL    HW195126   9.895   9.400   0.819
30093SOL    HW295127   9.869   9.531   0.891
30094SOL     OW95128   9.477   9.536   1.498
30094SOL    HW195129   9.421   9.612   1.509
30094SOL    HW295130   9.536   9.539   1.574
30095SOL     OW95131   9.893   9.424   0.128
30095SOL    HW195132   9.978   9.405   0.169
30095SOL    HW295133   9.914   9.482   0.055
30096SOL     OW95134   9.855   9.367   0.524
30096SOL    HW195135   9.791   9.378   0.595
30096SOL    HW295136   9.852   9.449   0.476
30097SOL     OW95137   0.244   9.585   0.418
30097SOL    HW195138   0.331   9.574   0.378
30097SOL    HW295139   0.263   9.602   0.511
30098SOL     OW95140   9.418   9.901   1.394
30098SOL    HW195141   9.512   9.895   1.376
30098SOL    HW295142   9.412   9.961   1.469
30099SOL     OW95143   9.912   9.497   1.076
30099SOL    HW195144   9.909   9.409   1.040
30099SOL    HW295145   9.863   9.491   1.159
30100SOL     OW95146   9.830   9.581   0.352
30100SOL    HW195147   9.834   9.532   0.270
30100SOL    HW295148   9.887   9.656   0.339
30101SOL     OW95149   9.948   9.889   0.916
30101SOL    HW195150   9.977   9.969   0.871
30101SOL    HW295151   9.966   9.819   0.854
30102SOL     OW95152   9.796   9.325   1.722
30102SOL    HW195153   9.863   9.377   1.678
30102SOL    HW295154   9.721   9.384   1.727
30103SOL     OW95155   9.565   9.528   1.236
30103SOL    HW195156   9.548   9.540   1.330
30103SOL    HW295157   9.607   9.442   1.229
30104SOL     OW95158   9.611   9.365   0.669
30104SOL    HW195159   9.575   9.453   0.680
30104SOL    HW295160   9.621   9.332   0.758
30105SOL     OW95161   9.657   0.048   0.877
30105SOL    HW195162   9.625   0.124   0.925
30105SOL    HW295163   9.667   9.980   0.944
30106SOL     OW95164   9.708   9.830   1.042
30106SOL    HW195165   9.652   9.759   1.011
30106SOL    HW295166   9.788   9.822   0.989
30107SOL     OW95167   9.335   9.848   1.128
30107SOL    HW195168   9.398   9.789   1.087
30107SOL    HW295169   9.375   9.872   1.212
30108SOL     OW95170   9.575   9.880   1.672
30108SOL    HW195171   9.658   9.843   1.639
30108SOL    HW295172   9.589   9.974   1.672
30109SOL     OW95173   0.007   9.789   0.298
30109SOL    HW195174   0.051   9.819   0.378
30109SOL    HW295175   9.962   9.868   0.265
30110SOL     OW95176   9.514   9.620   0.720
30110SOL    HW195177   9.426   9.650   0.699
30110SOL    HW295178   9.523   9.633   0.814
30111SOL     OW95179   9.987   9.491   1.622
30111SOL    HW195180   0.040   9.526   1.550
30111SOL    HW295181   0.011   9.545   1.697
30112SOL     OW95182   9.359   9.687   0.075
30112SOL    HW195183   9.295   9.746   0.115
30112SOL    HW295184   9.409   9.743   0.016
30113SOL     OW95185   9.417   9.520   0.288
30113SOL    HW195186   9.390   9.574   0.215
30113SOL    HW295187   9.511   9.537   0.297
30114SOL     OW95188   9.721   9.723   0.568
30114SOL    HW195189   9.739   9.664   0.495
30114SOL    HW295190   9.651   9.680   0.617
30115SOL     OW95191   9.673   9.904   1.300
30115SOL    HW195192   9.753   9.876   1.346
30115SOL    HW295193   9.679   9.863   1.214
30116SOL     OW95194   9.495   9.634   2.886
30116SOL    HW195195   9.535   9.593   2.963
30116SOL    HW295196   9.418   9.580   2.867
30117SOL     OW95197   9.305   9.697   2.514
30117SOL    HW195198   9.222   9.713   2.559
30117SOL    HW295199   9.286   9.626   2.453
30118SOL     OW95200   9.724   9.677   3.312
30118SOL    HW195201   9.798   9.668   3.372
30118SOL    HW295202   9.648   9.650   3.364
30119SOL     OW95203   9.354   9.980   2.483
30119SOL    HW195204   9.342   9.885   2.485
30119SOL    HW295205   9.449   9.992   2.475
30120SOL     OW95206   0.108   9.280   2.354
30120SOL    HW195207   0.164   9.355   2.374
30120SOL    HW295208   0.019   9.314   2.356
30121SOL     OW95209   0.327   9.709   2.066
30121SOL    HW195210   0.317   9.804   2.059
30121SOL    HW295211   0.338   9.679   1.976
30122SOL     OW95212   9.487   9.600   3.424
30122SOL    HW195213   9.405   9.628   3.463
30122SOL    HW295214   9.467   9.518   3.379
30123SOL     OW95215   9.840   9.412   1.986
30123SOL    HW195216   9.933   9.412   2.009
30123SOL    HW295217   9.837   9.375   1.898
30124SOL     OW95218   9.849   9.379   2.335
30124SOL    HW195219   9.772   9.379   2.392
30124SOL    HW295220   9.846   9.463   2.290
30125SOL     OW95221   9.577   9.339   2.025
30125SOL    HW195222   9.667   9.372   2.018
30125SOL    HW295223   9.579   9.281   2.102
30126SOL     OW95224   0.213   9.552   2.268
30126SOL    HW195225   0.249   9.614   2.205
30126SOL    HW295226   0.287   9.527   2.323
30127SOL     OW95227   9.366   9.887   3.268
30127SOL    HW195228   9.460   9.899   3.253
30127SOL    HW295229   9.360   9.866   3.362
30128SOL     OW95230   9.822   9.611   2.186
30128SOL    HW195231   9.818   9.561   2.105
30128SOL    HW295232   9.875   9.687   2.164
30129SOL     OW95233   9.611   9.520   3.113
30129SOL    HW195234   9.643   9.575   3.184
30129SOL    HW295235   9.550   9.459   3.154
30130SOL     OW95236   9.603   9.355   2.467
30130SOL    HW195237   9.578   9.436   2.511
30130SOL    HW295238   9.609   9.290   2.537
30131SOL     OW95239   9.711   0.059   2.760
30131SOL    HW195240   9.797   0.102   2.756
30131SOL    HW295241   9.651   0.127   2.789
30132SOL     OW95242   9.691   9.833   2.921
30132SOL    HW195243   9.616   9.791   2.880
30132SOL    HW295244   9.711   9.907   2.863
30133SOL     OW95245   9.332   9.844   2.990
30133SOL    HW195246   9.383   9.776   2.947
30133SOL    HW295247   9.361   9.842   3.081
30134SOL     OW95248   9.531   9.852   3.602
30134SOL    HW195249   9.565   9.775   3.556
30134SOL    HW295250   9.436   9.848   3.588
30135SOL     OW95251   9.978   9.843   2.152
30135SOL    HW195252   0.053   9.861   2.209
30135SOL    HW295253   9.907   9.895   2.188
30136SOL     OW95254   9.543   9.595   2.601
30136SOL    HW195255   9.464   9.636   2.566
30136SOL    HW295256   9.540   9.612   2.695
30137SOL     OW95257   9.427   9.698   1.828
30137SOL    HW195258   9.338   9.705   1.794
30137SOL    HW295259   9.472   9.775   1.793
30138SOL     OW95260   9.346   9.464   2.104
30138SOL    HW195261   9.332   9.548   2.059
30138SOL    HW295262   9.431   9.435   2.072
30139SOL     OW95263   9.782   9.656   2.462
30139SOL    HW195264   9.763   9.658   2.368
30139SOL    HW295265   9.696   9.644   2.503
30140SOL     OW95266   9.627   9.905   3.180
30140SOL    HW195267   9.674   9.841   3.233
30140SOL    HW295268   9.655   9.888   3.091
30141SOL     OW95269   9.575   9.536   4.692
30141SOL    HW195270   9.584   9.529   4.787
30141SOL    HW295271   9.481   9.536   4.676
30142SOL     OW95272   9.290   9.617   4.390
30142SOL    HW195273   9.218   9.665   4.430
30142SOL    HW295274   9.308   9.663   4.308
30143SOL     OW95275   9.759   9.711   5.291
30143SOL    HW195276   9.840   9.663   5.308
30143SOL    HW295277   9.727   9.677   5.207
30144SOL     OW95278   9.398   9.987   4.329
30144SOL    HW195279   9.433   9.908   4.290
30144SOL    HW295280   9.451   0.058   4.293
30145SOL     OW95281   0.058   9.290   4.238
30145SOL    HW195282   0.124   9.360   4.242
30145SOL    HW295283   9.975   9.335   4.252
30146SOL     OW95284   9.600   9.459   5.461
30146SOL    HW195285   9.607   9.544   5.503
30146SOL    HW295286   9.575   9.399   5.531
30147SOL     OW95287   0.339   9.733   3.923
30147SOL    HW195288   0.352   9.827   3.908
30147SOL    HW295289   0.263   9.711   3.869
30148SOL     OW95290   9.501   9.554   5.223
30148SOL    HW195291   9.476   9.637   5.263
30148SOL    HW295292   9.538   9.503   5.295
30149SOL     OW95293   9.823   9.437   4.266
30149SOL    HW195294   9.816   9.533   4.268
30149SOL    HW295295   9.787   9.413   4.180
30150SOL     OW95296   9.564   9.247   3.991
30150SOL    HW195297   9.628   9.308   3.955
30150SOL    HW295298   9.491   9.250   3.929
30151SOL     OW95299   0.218   9.517   4.228
30151SOL    HW195300   0.165   9.530   4.149
30151SOL    HW295301   0.307   9.537   4.200
30152SOL     OW95302   9.433   9.941   5.168
30152SOL    HW195303   9.502   9.914   5.107
30152SOL    HW295304   9.432   0.036   5.163
30153SOL     OW95305   9.924   9.479   5.019
30153SOL    HW195306   9.991   9.447   4.958
30153SOL    HW295307   9.850   9.503   4.963
30154SOL     OW95308   9.763   9.641   3.974
30154SOL    HW195309   9.760   9.552   3.938
30154SOL    HW295310   9.845   9.678   3.940
30155SOL     OW95311   9.914   9.881   4.660
30155SOL    HW195312   9.944   9.944   4.594
30155SOL    HW295313   9.994   9.854   4.705
30156SOL     OW95314   9.793   9.267   5.403
30156SOL    HW195315   9.740   9.219   5.339
30156SOL    HW295316   9.746   9.349   5.417
30157SOL     OW95317   9.574   9.493   4.966
30157SOL    HW195318   9.564   9.517   5.058
30157SOL    HW295319   9.572   9.397   4.965
30158SOL     OW95320   9.644   0.142   4.759
30158SOL    HW195321   9.692   0.186   4.688
30158SOL    HW295322   9.651   0.049   4.737
30159SOL     OW95323   9.658   9.828   4.737
30159SOL    HW195324   9.632   9.747   4.692
30159SOL    HW295325   9.747   9.846   4.705
30160SOL     OW95326   9.358   9.855   4.834
30160SOL    HW195327   9.362   9.917   4.761
30160SOL    HW295328   9.449   9.834   4.853
30161SOL     OW95329   9.513   9.790   5.388
30161SOL    HW195330   9.605   9.775   5.366
30161SOL    HW295331   9.483   9.854   5.323
30162SOL     OW95332   0.057   9.857   4.005
30162SOL    HW195333   0.084   9.773   3.968
30162SOL    HW295334   0.019   9.905   3.931
30163SOL     OW95335   9.524   9.496   4.328
30163SOL    HW195336   9.547   9.571   4.273
30163SOL    HW295337   9.440   9.520   4.367
30164SOL     OW95338   9.972   9.513   5.284
30164SOL    HW195339   9.955   9.504   5.190
30164SOL    HW295340   0.024   9.436   5.307
30165SOL     OW95341   9.278   9.449   4.097
30165SOL    HW195342   9.265   9.457   4.002
30165SOL    HW295343   9.301   9.538   4.125
30166SOL     OW95344   9.783   9.708   4.245
30166SOL    HW195345   9.783   9.703   4.149
30166SOL    HW295346   9.708   9.764   4.266
30167SOL     OW95347   9.641   9.862   5.008
30167SOL    HW195348   9.730   9.877   5.041
30167SOL    HW295349   9.652   9.849   4.914
30168SOL     OW95350   9.518   9.615   6.582
30168SOL    HW195351   9.561   9.568   6.653
30168SOL    HW295352   9.439   9.564   6.563
30169SOL     OW95353   9.315   9.676   6.225
30169SOL    HW195354   9.230   9.690   6.266
30169SOL    HW295355   9.298   9.611   6.157
30170SOL     OW95356   0.172   0.144   7.356
30170SOL    HW195357   0.100   0.198   7.389
30170SOL    HW295358   0.251   0.195   7.376
30171SOL     OW95359   9.732   9.684   7.053
30171SOL    HW195360   9.809   9.628   7.054
30171SOL    HW295361   9.658   9.623   7.050
30172SOL     OW95362   9.388   9.948   6.218
30172SOL    HW195363   9.382   9.853   6.222
30172SOL    HW295364   9.305   9.976   6.181
30173SOL     OW95365   0.168   9.369   6.092
30173SOL    HW195366   0.215   9.442   6.051
30173SOL    HW295367   0.077   9.398   6.096
30174SOL     OW95368   9.604   9.573   7.419
30174SOL    HW195369   9.614   9.656   7.373
30174SOL    HW295370   9.515   9.574   7.452
30175SOL     OW95371   0.173   9.750   5.810
30175SOL    HW195372   0.193   9.841   5.787
30175SOL    HW295373   0.175   9.703   5.726
30176SOL     OW95374   9.839   9.440   6.465
30176SOL    HW195375   9.879   9.454   6.551
30176SOL    HW295376   9.874   9.510   6.410
30177SOL     OW95377   9.500   9.535   7.053
30177SOL    HW195378   9.416   9.580   7.054
30177SOL    HW295379   9.481   9.447   7.086
30178SOL     OW95380   9.877   9.386   5.643
30178SOL    HW195381   9.928   9.460   5.612
30178SOL    HW295382   9.869   9.329   5.566
30179SOL     OW95383   0.306   9.590   5.996
30179SOL    HW195384   0.258   9.652   5.941
30179SOL    HW295385   0.388   9.575   5.949
30180SOL     OW95386   9.419   9.909   7.049
30180SOL    HW195387   9.492   9.900   6.987
30180SOL    HW295388   9.405   0.003   7.055
30181SOL     OW95389   9.907   9.469   6.739
30181SOL    HW195390   9.918   9.388   6.788
30181SOL    HW295391   9.819   9.498   6.761
30182SOL     OW95392   9.900   9.894   6.477
30182SOL    HW195393   9.942   9.933   6.400
30182SOL    HW295394   9.958   9.917   6.550
30183SOL     OW95395   9.771   9.386   7.303
30183SOL    HW195396   9.734   9.306   7.265
30183SOL    HW295397   9.695   9.437   7.330
30184SOL     OW95398   9.626   9.498   6.806
30184SOL    HW195399   9.582   9.521   6.888
30184SOL    HW295400   9.612   9.404   6.797
30185SOL     OW95401   9.606   0.064   6.463
30185SOL    HW195402   9.666   0.134   6.490
30185SOL    HW295403   9.630   9.990   6.519
30186SOL     OW95404   9.674   9.843   6.618
30186SOL    HW195405   9.635   9.760   6.589
30186SOL    HW295406   9.756   9.849   6.570
30187SOL     OW95407   9.376   9.814   6.726
30187SOL    HW195408   9.411   9.745   6.669
30187SOL    HW295409   9.446   9.879   6.731
30188SOL     OW95410   9.599   9.809   7.256
30188SOL    HW195411   9.652   9.768   7.188
30188SOL    HW295412   9.521   9.840   7.210
30189SOL     OW95413   0.014   9.939   5.938
30189SOL    HW195414   0.058   9.865   5.894
30189SOL    HW295415   0.033   0.014   5.882
30190SOL     OW95416   9.574   9.623   6.304
30190SOL    HW195417   9.483   9.632   6.277
30190SOL    HW295418   9.570   9.606   6.398
30191SOL     OW95419   9.920   9.478   7.091
30191SOL    HW195420   9.912   9.405   7.029
30191SOL    HW295421   9.875   9.448   7.170
30192SOL     OW95422   9.367   9.660   5.585
30192SOL    HW195423   9.286   9.653   5.533
30192SOL    HW295424   9.424   9.716   5.532
30193SOL     OW95425   9.435   9.507   5.807
30193SOL    HW195426   9.406   9.572   5.744
30193SOL    HW295427   9.448   9.427   5.755
30194SOL     OW95428   9.691   9.836   6.187
30194SOL    HW195429   9.777   9.812   6.153
30194SOL    HW295430   9.658   9.755   6.226
30195SOL     OW95431   9.641   9.890   6.886
30195SOL    HW195432   9.689   9.826   6.938
30195SOL    HW295433   9.665   9.871   6.795
30196SOL     OW95434   9.488   9.636   8.486
30196SOL    HW195435   9.534   9.582   8.551
30196SOL    HW295436   9.427   9.575   8.444
30197SOL     OW95437   9.301   9.699   8.099
30197SOL    HW195438   9.222   9.708   8.153
30197SOL    HW295439   9.280   9.631   8.036
30198SOL     OW95440   0.181   0.065   9.198
30198SOL    HW195441   0.107   0.073   9.259
30198SOL    HW295442   0.256   0.101   9.245
30199SOL     OW95443   9.717   9.712   8.910
30199SOL    HW195444   9.794   9.661   8.888
30199SOL    HW295445   9.646   9.648   8.913
30200SOL     OW95446   9.333   9.981   8.043
30200SOL    HW195447   9.323   9.886   8.057
30200SOL    HW295448   9.425   9.998   8.062
30201SOL     OW95449   0.130   9.300   7.930
30201SOL    HW195450   0.172   9.319   8.014
30201SOL    HW295451   0.039   9.326   7.943
30202SOL     OW95452   9.642   9.536   9.209
30202SOL    HW195453   9.642   9.631   9.192
30202SOL    HW295454   9.559   9.520   9.255
30203SOL     OW95455   9.497   9.549   8.915
30203SOL    HW195456   9.415   9.597   8.913
30203SOL    HW295457   9.478   9.470   8.966
30204SOL     OW95458   9.939   9.422   7.515
30204SOL    HW195459   9.988   9.341   7.504
30204SOL    HW295460   9.878   9.424   7.442
30205SOL     OW95461   9.862   9.366   7.929
30205SOL    HW195462   9.781   9.368   7.980
30205SOL    HW295463   9.861   9.448   7.879
30206SOL     OW95464   9.604   9.355   7.624
30206SOL    HW195465   9.654   9.422   7.576
30206SOL    HW295466   9.671   9.295   7.655
30207SOL     OW95467   0.239   9.587   7.924
30207SOL    HW195468   0.193   9.558   7.846
30207SOL    HW295469   0.245   9.509   7.979
30208SOL     OW95470   9.358   9.915   8.797
30208SOL    HW195471   9.454   9.921   8.795
30208SOL    HW295472   9.329   0.005   8.784
30209SOL     OW95473   9.861   9.479   8.590
30209SOL    HW195474   9.896   9.497   8.677
30209SOL    HW295475   9.766   9.488   8.600
30210SOL     OW95476   9.858   9.581   7.743
30210SOL    HW195477   9.871   9.533   7.661
30210SOL    HW295478   9.926   9.648   7.743
30211SOL     OW95479   9.900   9.894   8.343
30211SOL    HW195480   9.928   9.972   8.296
30211SOL    HW295481   9.950   9.896   8.425
30212SOL     OW95482   9.829   9.381   9.079
30212SOL    HW195483   9.784   9.300   9.052
30212SOL    HW295484   9.761   9.433   9.122
30213SOL     OW95485   9.587   9.457   8.672
30213SOL    HW195486   9.559   9.488   8.758
30213SOL    HW295487   9.555   9.367   8.668
30214SOL     OW95488   9.614   9.363   8.063
30214SOL    HW195489   9.591   9.455   8.053
30214SOL    HW295490   9.595   9.343   8.155
30215SOL     OW95491   9.648   0.103   8.392
30215SOL    HW195492   9.732   0.142   8.416
30215SOL    HW295493   9.650   0.016   8.432
30216SOL     OW95494   9.668   9.846   8.490
30216SOL    HW195495   9.612   9.771   8.471
30216SOL    HW295496   9.743   9.836   8.431
30217SOL     OW95497   9.283   9.826   8.549
30217SOL    HW195498   9.345   9.765   8.510
30217SOL    HW295499   9.324   9.855   8.630
30218SOL     OW95500   9.627   9.812   9.154
30218SOL    HW195501   9.656   9.791   9.066
30218SOL    HW295502   9.662   9.899   9.171
30219SOL     OW95503   0.096   9.816   7.749
30219SOL    HW195504   0.102   9.820   7.845
30219SOL    HW295505   0.074   9.905   7.723
30220SOL     OW95506   9.555   9.615   8.157
30220SOL    HW195507   9.468   9.654   8.148
30220SOL    HW295508   9.551   9.566   8.239
30221SOL     OW95509   9.926   9.528   8.859
30221SOL    HW195510   0.016   9.549   8.882
30221SOL    HW295511   9.895   9.473   8.931
30222SOL     OW95512   9.346   9.632   7.504
30222SOL    HW195513   9.293   9.633   7.424
30222SOL    HW295514   9.348   9.723   7.532
30223SOL     OW95515   9.357   9.436   7.706
30223SOL    HW195516   9.335   9.500   7.638
30223SOL    HW295517   9.447   9.410   7.687
30224SOL     OW95518   9.784   9.661   8.011
30224SOL    HW195519   9.765   9.653   7.917
30224SOL    HW295520   9.699   9.659   8.053
30225SOL     OW95521   9.628   9.919   8.752
30225SOL    HW195522   9.671   9.855   8.809
30225SOL    HW295523   9.649   9.890   8.663
30226SOL     OW95524   9.470   9.866   9.883
30226SOL    HW195525   9.389   9.887   9.835
30226SOL    HW295526   9.515   9.950   9.891
30227SOL     OW95527   0.086   9.343   9.836
30227SOL    HW195528   0.125   9.429   9.822
30227SOL    HW295529   9.992   9.358   9.835
30228SOL     OW95530   0.338   9.733   9.482
30228SOL    HW195531   0.342   9.828   9.492
30228SOL    HW295532   0.253   9.717   9.440
30229SOL     OW95533   9.853   9.445   9.428
30229SOL    HW195534   9.942   9.446   9.465
30229SOL    HW295535   9.866   9.432   9.334
30230SOL     OW95536   9.810   9.396   9.800
30230SOL    HW195537   9.730   9.406   9.852
30230SOL    HW295538   9.818   9.478   9.753
30231SOL     OW95539   9.612   9.334   9.503
30231SOL    HW195540   9.686   9.385   9.470
30231SOL    HW295541   9.653   9.265   9.555
30232SOL     OW95542   0.236   9.580   9.767
30232SOL    HW195543   0.282   9.656   9.732
30232SOL    HW295544   0.286   9.555   9.844
30233SOL     OW95545   9.815   9.625   9.638
30233SOL    HW195546   9.813   9.570   9.560
30233SOL    HW295547   9.888   9.686   9.623
30234SOL     OW95548   9.557   9.409   9.928
30234SOL    HW195549   9.554   9.504   9.938
30234SOL    HW295550   9.571   9.376   0.017
30235SOL     OW95551   9.633   9.854   0.320
30235SOL    HW195552   9.579   9.812   0.387
30235SOL    HW295553   9.705   9.894   0.368
30236SOL     OW95554   0.064   9.932   9.592
30236SOL    HW195555   0.055   9.888   9.677
30236SOL    HW295556   0.105   0.016   9.613
30237SOL     OW95557   9.393   9.616   9.335
30237SOL    HW195558   9.322   9.624   9.272
30237SOL    HW295559   9.440   9.699   9.329
30238SOL     OW95560   9.363   9.446   9.561
30238SOL    HW195561   9.356   9.507   9.487
30238SOL    HW295562   9.453   9.412   9.555
30239SOL     OW95563   9.686   9.677   9.881
30239SOL    HW195564   9.714   9.677   9.790
30239SOL    HW295565   9.622   9.748   9.887
30240SOD    SOD95566   0.482   1.356   1.277
30241SOD    SOD95567   0.815   0.824   3.905
30242SOD    SOD95568   0.897   1.016   7.328
30243SOD    SOD95569   9.971   1.331   8.864
30244SOD    SOD95570   0.895   1.098   8.689
30245SOD    SOD95571   1.351   0.996   9.608
30246SOD    SOD95572   1.589   2.953   7.905
30247SOD    SOD95573   0.429   2.467   8.266
30248SOD    SOD95574   9.988   3.008   9.320
30249SOD    SOD95575   1.387   1.763   9.681
30250SOD    SOD95576   1.226   5.093   1.335
30251SOD    SOD95577   0.509   5.296   0.976
30252SOD    SOD95578   1.357   5.328   9.971
30253SOD    SOD95579   0.158   4.767   1.935
30254SOD    SOD95580   0.494   4.451   8.641
30255SOD    SOD95581   1.261   7.307   9.975
30256SOD    SOD95582   0.881   6.189   3.100
30257SOD    SOD95583   0.092   7.133   3.643
30258SOD    SOD95584   1.339   6.968   3.421
30259SOD    SOD95585   0.120   6.418   5.306
30260SOD    SOD95586   0.292   7.617   4.594
30261SOD    SOD95587   0.274   6.739   7.255
30262SOD    SOD95588   0.428   5.644   6.009
30263SOD    SOD95589   0.685   6.309   6.458
30264SOD    SOD95590   1.523   6.872   7.130
30265SOD    SOD95591   1.019   7.168   8.040
30266SOD    SOD95592   1.369   7.320   7.362
30267SOD    SOD95593   1.350   8.620   2.169
30268SOD    SOD95594   1.414   8.763   3.487
30269SOD    SOD95595   1.439   8.116   4.431
30270SOD    SOD95596   0.961   7.627   4.371
30271SOD    SOD95597   1.865   7.829   6.990
30272SOD    SOD95598   0.343   7.948   6.221
30273SOD    SOD95599   1.366   9.514   9.950
30274SOD    SOD95600   1.446   9.751   9.094
30275SOD    SOD95601   2.770   0.743   3.352
30276SOD    SOD95602   2.752   0.874   2.590
30277SOD    SOD95603   2.928   1.646   5.323
30278SOD    SOD95604   2.788   0.707   5.292
30279SOD    SOD95605   3.524   0.889   4.574
30280SOD    SOD95606   1.841   1.249   4.110
30281SOD    SOD95607   1.883   0.716   5.603
30282SOD    SOD95608   3.472   1.548   4.650
30283SOD    SOD95609   2.318   1.729   4.742
30284SOD    SOD95610   3.504   0.142   6.835
30285SOD    SOD95611   2.945   0.894   7.818
30286SOD    SOD95612   3.228   1.573   9.794
30287SOD    SOD95613   3.512   2.141   1.167
30288SOD    SOD95614   2.558   3.402   1.318
30289SOD    SOD95615   2.058   3.482   2.032
30290SOD    SOD95616   2.044   1.901   2.528
30291SOD    SOD95617   1.933   1.976   5.728
30292SOD    SOD95618   3.535   2.344   5.552
30293SOD    SOD95619   2.741   2.104   4.116
30294SOD    SOD95620   3.376   3.030   4.335
30295SOD    SOD95621   2.884   3.224   3.676
30296SOD    SOD95622   3.017   2.884   6.057
30297SOD    SOD95623   2.738   2.143   6.964
30298SOD    SOD95624   3.397   3.529   6.787
30299SOD    SOD95625   2.017   3.415   7.053
30300SOD    SOD95626   2.998   2.805   8.367
30301SOD    SOD95627   2.878   3.230   7.417
30302SOD    SOD95628   2.649   2.576   7.703
30303SOD    SOD95629   2.052   3.385   7.907
30304SOD    SOD95630   2.863   1.990   9.663
30305SOD    SOD95631   2.203   5.532   0.913
30306SOD    SOD95632   2.918   3.610   1.800
30307SOD    SOD95633   2.400   3.647   0.089
30308SOD    SOD95634   2.489   4.068   0.708
30309SOD    SOD95635   3.145   4.779   1.570
30310SOD    SOD95636   2.033   5.100   1.498
30311SOD    SOD95637   2.910   5.475   3.425
30312SOD    SOD95638   2.218   3.981   2.806
30313SOD    SOD95639   2.341   4.251   2.201
30314SOD    SOD95640   2.897   4.672   2.951
30315SOD    SOD95641   1.873   3.983   4.863
30316SOD    SOD95642   3.167   5.154   4.460
30317SOD    SOD95643   2.544   3.785   5.461
30318SOD    SOD95644   1.645   4.090   3.875
30319SOD    SOD95645   2.196   5.306   4.790
30320SOD    SOD95646   3.263   3.879   4.580
30321SOD    SOD95647   2.590   5.062   6.737
30322SOD    SOD95648   3.055   4.443   7.099
30323SOD    SOD95649   2.397   4.685   7.267
30324SOD    SOD95650   2.567   4.579   5.789
30325SOD    SOD95651   2.045   4.455   7.816
30326SOD    SOD95652   3.040   3.614   9.311
30327SOD    SOD95653   2.612   4.342   8.518
30328SOD    SOD95654   1.870   4.152   9.169
30329SOD    SOD95655   3.269   3.880   8.416
30330SOD    SOD95656   2.219   7.617   0.369
30331SOD    SOD95657   1.818   6.951   1.476
30332SOD    SOD95658   2.721   6.370   1.265
30333SOD    SOD95659   2.230   7.160   1.566
30334SOD    SOD95660   3.272   5.810   1.044
30335SOD    SOD95661   3.135   6.966   2.732
30336SOD    SOD95662   2.115   6.107   2.756
30337SOD    SOD95663   2.414   7.035   3.246
30338SOD    SOD95664   2.494   7.401   2.137
30339SOD    SOD95665   2.564   6.078   4.722
30340SOD    SOD95666   3.558   5.611   4.494
30341SOD    SOD95667   3.270   6.677   5.098
30342SOD    SOD95668   3.085   6.931   7.102
30343SOD    SOD95669   2.748   7.350   5.652
30344SOD    SOD95670   3.736   7.276   7.205
30345SOD    SOD95671   1.669   6.728   5.777
30346SOD    SOD95672   2.520   5.820   7.021
30347SOD    SOD95673   3.040   6.296   7.609
30348SOD    SOD95674   2.043   6.682   7.850
30349SOD    SOD95675   3.507   6.463   9.150
30350SOD    SOD95676   3.086   6.724   8.186
30351SOD    SOD95677   3.619   7.461   8.819
30352SOD    SOD95678   3.160   5.664   8.847
30353SOD    SOD95679   2.088   6.717   9.685
30354SOD    SOD95680   3.408   8.912   9.974
30355SOD    SOD95681   3.578   8.463   3.554
30356SOD    SOD95682   2.269   7.928   2.631
30357SOD    SOD95683   3.004   9.434   2.312
30358SOD    SOD95684   2.562   7.820   4.210
30359SOD    SOD95685   2.959   8.080   5.020
30360SOD    SOD95686   3.476   7.637   4.254
30361SOD    SOD95687   3.393   8.691   6.493
30362SOD    SOD95688   2.898   9.078   6.772
30363SOD    SOD95689   3.513   7.982   6.580
30364SOD    SOD95690   2.921   7.621   6.813
30365SOD    SOD95691   2.643   8.086   8.650
30366SOD    SOD95692   2.948   8.293   9.423
30367SOD    SOD95693   2.632   8.914   9.768
30368SOD    SOD95694   5.492   0.272   3.473
30369SOD    SOD95695   5.454   1.122   4.395
30370SOD    SOD95696   3.931   1.413   7.562
30371SOD    SOD95697   5.208   3.178   0.924
30372SOD    SOD95698   4.284   2.404   1.020
30373SOD    SOD95699   5.394   2.119   1.285
30374SOD    SOD95700   5.140   2.544   2.115
30375SOD    SOD95701   5.568   1.784   3.093
30376SOD    SOD95702   4.419   3.213   2.448
30377SOD    SOD95703   5.038   2.774   3.774
30378SOD    SOD95704   4.449   2.039   4.170
30379SOD    SOD95705   4.962   2.151   5.049
30380SOD    SOD95706   5.320   2.524   5.371
30381SOD    SOD95707   3.871   2.031   4.890
30382SOD    SOD95708   4.050   2.421   7.116
30383SOD    SOD95709   4.485   3.419   7.123
30384SOD    SOD95710   5.342   2.853   7.252
30385SOD    SOD95711   4.631   2.954   5.668
30386SOD    SOD95712   4.020   3.038   8.618
30387SOD    SOD95713   3.965   3.504   7.919
30388SOD    SOD95714   5.441   2.530   8.176
30389SOD    SOD95715   5.183   2.913   8.910
30390SOD    SOD95716   4.574   1.753   7.511
30391SOD    SOD95717   5.034   3.475   8.425
30392SOD    SOD95718   3.814   2.000   8.285
30393SOD    SOD95719   4.201   2.924   9.623
30394SOD    SOD95720   4.710   4.400   0.465
30395SOD    SOD95721   5.158   4.334   1.435
30396SOD    SOD95722   3.681   4.121   1.138
30397SOD    SOD95723   4.070   3.887   0.478
30398SOD    SOD95724   3.868   4.658   2.837
30399SOD    SOD95725   4.665   4.369   2.345
30400SOD    SOD95726   5.180   3.618   2.277
30401SOD    SOD95727   5.308   4.797   2.443
30402SOD    SOD95728   3.873   5.147   3.318
30403SOD    SOD95729   3.721   4.730   2.118
30404SOD    SOD95730   4.064   3.828   5.258
30405SOD    SOD95731   4.518   3.654   4.218
30406SOD    SOD95732   4.747   4.184   4.024
30407SOD    SOD95733   4.585   5.422   5.130
30408SOD    SOD95734   4.321   5.001   7.441
30409SOD    SOD95735   4.163   5.565   6.496
30410SOD    SOD95736   5.270   3.677   7.463
30411SOD    SOD95737   5.032   4.765   6.665
30412SOD    SOD95738   3.819   3.953   6.289
30413SOD    SOD95739   3.683   4.726   5.872
30414SOD    SOD95740   3.483   4.877   7.686
30415SOD    SOD95741   5.010   4.771   8.697
30416SOD    SOD95742   3.616   4.088   7.434
30417SOD    SOD95743   4.222   4.511   8.235
30418SOD    SOD95744   4.342   5.182   0.009
30419SOD    SOD95745   3.958   4.528   9.558
30420SOD    SOD95746   3.857   6.633   0.983
30421SOD    SOD95747   3.948   6.076   0.613
30422SOD    SOD95748   3.852   6.693   2.718
30423SOD    SOD95749   4.263   6.758   1.923
30424SOD    SOD95750   4.728   7.434   2.234
30425SOD    SOD95751   5.099   5.772   3.506
30426SOD    SOD95752   4.090   5.648   1.979
30427SOD    SOD95753   4.791   6.089   2.167
30428SOD    SOD95754   4.708   7.263   3.497
30429SOD    SOD95755   3.892   7.001   3.326
30430SOD    SOD95756   5.478   6.739   3.199
30431SOD    SOD95757   4.696   6.979   5.453
30432SOD    SOD95758   5.465   5.822   5.257
30433SOD    SOD95759   3.719   6.658   4.433
30434SOD    SOD95760   4.755   6.339   4.657
30435SOD    SOD95761   5.065   5.937   4.181
30436SOD    SOD95762   3.873   6.694   6.498
30437SOD    SOD95763   3.655   6.490   7.283
30438SOD    SOD95764   4.385   6.053   7.062
30439SOD    SOD95765   4.710   7.391   6.199
30440SOD    SOD95766   5.634   6.351   5.925
30441SOD    SOD95767   5.317   7.005   7.379
30442SOD    SOD95768   3.573   6.244   8.149
30443SOD    SOD95769   4.906   5.867   8.661
30444SOD    SOD95770   4.096   6.684   8.739
30445SOD    SOD95771   4.757   7.024   8.262
30446SOD    SOD95772   5.385   7.049   9.065
30447SOD    SOD95773   4.605   7.363   7.428
30448SOD    SOD95774   4.526   6.302   9.725
30449SOD    SOD95775   5.477   9.003   0.458
30450SOD    SOD95776   4.839   8.777   0.736
30451SOD    SOD95777   3.749   9.526   3.585
30452SOD    SOD95778   4.078   7.993   2.514
30453SOD    SOD95779   5.613   9.136   3.459
30454SOD    SOD95780   4.840   8.822   2.484
30455SOD    SOD95781   3.949   8.171   4.102
30456SOD    SOD95782   3.952   7.604   5.547
30457SOD    SOD95783   3.668   8.230   4.948
30458SOD    SOD95784   4.358   7.918   4.927
30459SOD    SOD95785   3.818   8.398   5.760
30460SOD    SOD95786   5.611   8.706   6.061
30461SOD    SOD95787   4.376   9.431   6.254
30462SOD    SOD95788   3.803   9.395   7.654
30463SOD    SOD95789   4.775   7.999   8.584
30464SOD    SOD95790   3.925   8.372   7.887
30465SOD    SOD95791   5.067   9.563   8.177
30466SOD    SOD95792   4.714   8.881   7.756
30467SOD    SOD95793   5.009   9.915   9.691
30468SOD    SOD95794   6.118   0.177   0.541
30469SOD    SOD95795   7.111   0.504   0.277
30470SOD    SOD95796   7.081   0.912   0.441
30471SOD    SOD95797   6.195   1.626   2.181
30472SOD    SOD95798   6.036   1.388   5.001
30473SOD    SOD95799   7.462   0.146   4.194
30474SOD    SOD95800   6.653   0.421   7.028
30475SOD    SOD95801   6.253   0.483   7.844
30476SOD    SOD95802   5.860   1.374   9.138
30477SOD    SOD95803   7.125   0.508   9.624
30478SOD    SOD95804   6.079   3.071   1.664
30479SOD    SOD95805   7.299   2.209   1.961
30480SOD    SOD95806   6.981   1.911   2.852
30481SOD    SOD95807   6.261   3.600   2.196
30482SOD    SOD95808   7.151   3.541   2.360
30483SOD    SOD95809   7.298   2.981   2.495
30484SOD    SOD95810   6.514   2.477   3.122
30485SOD    SOD95811   6.156   3.693   4.535
30486SOD    SOD95812   6.554   2.880   5.493
30487SOD    SOD95813   6.860   2.225   4.815
30488SOD    SOD95814   6.718   2.593   3.949
30489SOD    SOD95815   5.547   1.826   6.985
30490SOD    SOD95816   7.069   3.590   6.178
30491SOD    SOD95817   7.052   2.112   5.985
30492SOD    SOD95818   6.032   2.296   5.861
30493SOD    SOD95819   5.609   2.937   6.661
30494SOD    SOD95820   7.373   2.397   6.530
30495SOD    SOD95821   6.323   3.344   6.999
30496SOD    SOD95822   7.479   2.570   8.004
30497SOD    SOD95823   7.074   3.115   8.558
30498SOD    SOD95824   5.721   2.180   8.731
30499SOD    SOD95825   6.353   2.160   7.844
30500SOD    SOD95826   6.369   3.247   7.985
30501SOD    SOD95827   6.357   3.370   8.956
30502SOD    SOD95828   6.159   4.403   1.113
30503SOD    SOD95829   7.363   4.313   1.234
30504SOD    SOD95830   6.320   3.971   2.901
30505SOD    SOD95831   7.009   4.991   2.875
30506SOD    SOD95832   6.084   5.118   3.156
30507SOD    SOD95833   6.488   4.525   3.281
30508SOD    SOD95834   7.382   5.240   5.078
30509SOD    SOD95835   6.414   4.204   5.153
30510SOD    SOD95836   6.143   4.307   4.143
30511SOD    SOD95837   7.550   4.300   4.070
30512SOD    SOD95838   6.852   3.745   4.574
30513SOD    SOD95839   5.700   3.949   6.228
30514SOD    SOD95840   7.512   4.948   6.044
30515SOD    SOD95841   7.282   3.602   7.502
30516SOD    SOD95842   5.892   4.235   7.106
30517SOD    SOD95843   6.054   4.853   5.877
30518SOD    SOD95844   7.587   3.906   6.398
30519SOD    SOD95845   6.318   5.181   7.274
30520SOD    SOD95846   7.119   5.072   8.428
30521SOD    SOD95847   5.977   4.297   8.132
30522SOD    SOD95848   6.689   4.091   8.289
30523SOD    SOD95849   5.890   4.304   9.004
30524SOD    SOD95850   6.368   5.185   7.970
30525SOD    SOD95851   7.213   5.180   9.459
30526SOD    SOD95852   7.423   5.804   1.461
30527SOD    SOD95853   5.996   6.570   1.032
30528SOD    SOD95854   5.542   7.670   1.397
30529SOD    SOD95855   6.136   6.483   0.475
30530SOD    SOD95856   6.037   6.207   1.807
30531SOD    SOD95857   6.311   7.599   2.595
30532SOD    SOD95858   7.386   5.978   2.301
30533SOD    SOD95859   6.192   6.472   2.657
30534SOD    SOD95860   7.243   7.519   1.657
30535SOD    SOD95861   6.988   5.674   2.867
30536SOD    SOD95862   6.453   6.659   3.741
30537SOD    SOD95863   5.741   6.225   4.314
30538SOD    SOD95864   6.173   5.672   4.194
30539SOD    SOD95865   6.468   6.336   4.740
30540SOD    SOD95866   7.702   7.191   5.210
30541SOD    SOD95867   6.896   6.741   7.269
30542SOD    SOD95868   6.023   6.970   7.357
30543SOD    SOD95869   6.232   7.495   5.857
30544SOD    SOD95870   7.307   5.735   6.699
30545SOD    SOD95871   5.762   6.248   8.347
30546SOD    SOD95872   6.717   6.134   8.010
30547SOD    SOD95873   7.236   6.432   9.170
30548SOD    SOD95874   5.707   7.518   8.540
30549SOD    SOD95875   6.324   7.371   7.967
30550SOD    SOD95876   5.656   6.107   7.434
30551SOD    SOD95877   7.262   7.600   8.523
30552SOD    SOD95878   6.070   8.666   0.430
30553SOD    SOD95879   7.278   7.826   3.694
30554SOD    SOD95880   6.762   7.714   3.008
30555SOD    SOD95881   7.383   8.945   3.186
30556SOD    SOD95882   6.132   8.359   2.337
30557SOD    SOD95883   5.775   7.834   4.825
30558SOD    SOD95884   5.934   8.248   4.251
30559SOD    SOD95885   6.100   7.585   3.840
30560SOD    SOD95886   6.370   8.827   6.744
30561SOD    SOD95887   7.058   8.949   6.501
30562SOD    SOD95888   6.875   7.859   6.587
30563SOD    SOD95889   7.022   8.678   5.632
30564SOD    SOD95890   7.498   9.099   7.156
30565SOD    SOD95891   6.250   7.835   7.054
30566SOD    SOD95892   6.772   8.642   7.763
30567SOD    SOD95893   6.542   8.959   9.481
30568SOD    SOD95894   6.280   9.704   1.296
30569SOD    SOD95895   6.308   9.657   2.127
30570SOD    SOD95896   7.139   9.432   4.013
30571SOD    SOD95897   7.023   0.004   6.263
30572SOD    SOD95898   6.008   9.354   9.391
30573SOD    SOD95899   8.066   0.689   3.070
30574SOD    SOD95900   8.947   1.684   4.497
30575SOD    SOD95901   7.796   0.468   4.653
30576SOD    SOD95902   9.124   0.590   6.755
30577SOD    SOD95903   8.031   0.683   9.746
30578SOD    SOD95904   8.896   0.795   9.374
30579SOD    SOD95905   8.993   2.538   0.555
30580SOD    SOD95906   9.105   2.681   1.712
30581SOD    SOD95907   7.735   2.608   3.634
30582SOD    SOD95908   8.238   3.211   6.769
30583SOD    SOD95909   9.403   3.652   6.943
30584SOD    SOD95910   8.653   3.366   8.421
30585SOD    SOD95911   9.218   3.598   8.867
30586SOD    SOD95912   7.769   2.928   9.434
30587SOD    SOD95913   8.827   2.146   9.654
30588SOD    SOD95914   8.801   4.347   0.615
30589SOD    SOD95915   7.798   4.946   0.659
30590SOD    SOD95916   8.772   4.160   4.876
30591SOD    SOD95917   8.832   4.763   4.664
30592SOD    SOD95918   8.758   4.684   3.898
30593SOD    SOD95919   8.077   4.500   7.473
30594SOD    SOD95920   8.346   5.374   5.987
30595SOD    SOD95921   8.047   3.697   7.627
30596SOD    SOD95922   8.734   5.010   8.291
30597SOD    SOD95923   8.101   5.277   7.733
30598SOD    SOD95924   8.659   4.608   9.738
30599SOD    SOD95925   7.702   5.853   0.974
30600SOD    SOD95926   8.418   6.696   1.775
30601SOD    SOD95927   8.741   6.194   0.415
30602SOD    SOD95928   9.117   6.441   3.583
30603SOD    SOD95929   8.568   6.213   2.806
30604SOD    SOD95930   7.626   7.022   3.840
30605SOD    SOD95931   7.753   6.168   4.796
30606SOD    SOD95932   8.431   6.493   6.179
30607SOD    SOD95933   7.834   6.846   6.273
30608SOD    SOD95934   8.987   6.423   8.237
30609SOD    SOD95935   9.481   5.870   9.829
30610SOD    SOD95936   8.868   7.332   9.278
30611SOD    SOD95937   8.057   8.860   1.845
30612SOD    SOD95938   9.145   9.184   0.232
30613SOD    SOD95939   8.771   7.823   1.559
30614SOD    SOD95940   7.739   7.887   2.340
30615SOD    SOD95941   8.881   9.187   3.894
30616SOD    SOD95942   8.263   8.072   4.508
30617SOD    SOD95943   7.950   9.165   5.341
30618SOD    SOD95944   8.955   8.690   8.843
30619SOD    SOD95945   8.718   7.839   7.687
30620SOD    SOD95946   8.164   8.287   8.308
30621SOD    SOD95947   8.456   0.029   2.147
30622SOD    SOD95948   7.986   9.441   3.486
30623SOD    SOD95949   9.563   1.653   2.330
30624SOD    SOD95950   9.980   1.922   6.280
30625SOD    SOD95951   9.603   0.045   6.226
30626SOD    SOD95952   9.852   0.264   8.699
30627SOD    SOD95953   9.272   1.382   8.901
30628SOD    SOD95954   9.657   2.083   1.574
30629SOD    SOD95955   9.416   3.408   1.961
30630SOD    SOD95956   9.856   4.449   0.725
30631SOD    SOD95957   9.418   3.876   5.477
30632SOD    SOD95958   9.646   4.968   6.541
30633SOD    SOD95959   9.415   4.605   0.117
30634SOD    SOD95960   9.749   6.552   3.620
30635SOD    SOD95961   9.493   7.523   5.376
30636SOD    SOD95962   9.835   7.295   5.938
30637SOD    SOD95963   9.968   5.925   9.479
30638SOD    SOD95964   9.668   8.464   1.119
30639SOD    SOD95965   9.433   8.337   5.230
30640SOD    SOD95966   9.619   8.033   8.321
30641SOD    SOD95967   9.565   7.746   7.553
30642SOD    SOD95968   9.854   8.707   9.924
30643SOD    SOD95969   0.266   9.708   7.629
  10.00000  10.00000  10.00000
