METHYL-ACCEPTING CHEMOTAXIS PROTEIN II
 6060
  352LIG      N 5003   2.545   9.504   5.035
  352LIG     H1 5004   2.613   9.556   5.086
  352LIG     H2 5005   2.590   9.453   4.962
  352LIG     H3 5006   2.478   9.567   4.995
  352LIG     CA 5007   2.474   9.407   5.128
  352LIG     HA 5008   2.541   9.345   5.168
  352LIG     CB 5009   2.407   9.486   5.238
  352LIG    HB1 5010   2.342   9.551   5.199
  352LIG    HB2 5011   2.476   9.536   5.290
  352LIG     CG 5012   2.334   9.393   5.332
  352LIG    OD1 5013   2.208   9.363   5.294
  352LIG    OD2 5014   2.386   9.350   5.435
  352LIG      C 5015   2.368   9.326   5.049
  352LIG    OT1 5016   2.355   9.352   4.915
  352LIG    OT2 5017   2.295   9.234   5.119
  353LIG      N 5018   0.408   2.597   0.569
  353LIG     H1 5019   0.310   2.588   0.587
  353LIG     H2 5020   0.422   2.623   0.473
  353LIG     H3 5021   0.453   2.510   0.588
  353LIG     CA 5022   0.465   2.705   0.660
  353LIG     HA 5023   0.420   2.792   0.642
  353LIG     CB 5024   0.441   2.665   0.804
  353LIG    HB1 5025   0.485   2.577   0.822
  353LIG    HB2 5026   0.344   2.657   0.821
  353LIG     CG 5027   0.498   2.768   0.896
  353LIG    OD1 5028   0.629   2.751   0.927
  353LIG    OD2 5029   0.431   2.860   0.942
  353LIG      C 5030   0.618   2.720   0.634
  353LIG    OT1 5031   0.673   2.639   0.539
  353LIG    OT2 5032   0.684   2.813   0.708
  354LIG      N 5033   4.080   1.284   1.543
  354LIG     H1 5034   4.178   1.282   1.520
  354LIG     H2 5035   4.069   1.297   1.641
  354LIG     H3 5036   4.038   1.197   1.515
  354LIG     CA 5037   4.013   1.398   1.468
  354LIG     HA 5038   4.054   1.484   1.494
  354LIG     CB 5039   4.032   1.377   1.319
  354LIG    HB1 5040   3.992   1.288   1.292
  354LIG    HB2 5041   4.129   1.376   1.298
  354LIG     CG 5042   3.965   1.486   1.242
  354LIG    OD1 5043   3.834   1.465   1.215
  354LIG    OD2 5044   4.025   1.587   1.205
  354LIG      C 5045   3.861   1.400   1.502
  354LIG    OT1 5046   3.815   1.306   1.589
  354LIG    OT2 5047   3.786   1.497   1.442
  355LIG      N 5048   0.846   8.993   1.247
  355LIG     H1 5049   0.786   8.914   1.259
  355LIG     H2 5050   0.855   9.014   1.149
  355LIG     H3 5051   0.936   8.973   1.286
  355LIG     CA 5052   0.787   9.114   1.319
  355LIG     HA 5053   0.697   9.134   1.281
  355LIG     CB 5054   0.773   9.081   1.466
  355LIG    HB1 5055   0.863   9.058   1.504
  355LIG    HB2 5056   0.712   9.003   1.477
  355LIG     CG 5057   0.716   9.198   1.540
  355LIG    OD1 5058   0.808   9.289   1.582
  355LIG    OD2 5059   0.596   9.211   1.562
  355LIG      C 5060   0.880   9.237   1.301
  355LIG    OT1 5061   0.994   9.219   1.227
  355LIG    OT2 5062   0.841   9.353   1.359
  356LIG      N 5063   8.912   3.372   0.517
  356LIG     H1 5064   8.816   3.400   0.509
  356LIG     H2 5065   8.957   3.385   0.429
  356LIG     H3 5066   8.915   3.275   0.543
  356LIG     CA 5067   8.981   3.455   0.623
  356LIG     HA 5068   8.977   3.551   0.598
  356LIG     CB 5069   8.910   3.435   0.755
  356LIG    HB1 5070   8.911   3.338   0.780
  356LIG    HB2 5071   8.815   3.465   0.747
  356LIG     CG 5072   8.977   3.514   0.863
  356LIG    OD1 5073   9.080   3.452   0.924
  356LIG    OD2 5074   8.940   3.628   0.894
  356LIG      C 5075   9.130   3.410   0.636
  356LIG    OT1 5076   9.172   3.309   0.554
  356LIG    OT2 5077   9.206   3.476   0.728
  357LIG      N 5078   5.333   0.129   8.505
  357LIG     H1 5079   5.296   0.167   8.589
  357LIG     H2 5080   5.403   0.190   8.468
  357LIG     H3 5081   5.260   0.116   8.438
  357LIG     CA 5082   5.396  -0.007   8.535
  357LIG     HA 5083   5.469   0.005   8.603
  357LIG     CB 5084   5.290  -0.098   8.593
  357LIG    HB1 5085   5.215  -0.108   8.527
  357LIG    HB2 5086   5.254  -0.059   8.677
  357LIG     CG 5087   5.348  -0.233   8.622
  357LIG    OD1 5088   5.348  -0.319   8.518
  357LIG    OD2 5089   5.391  -0.263   8.734
  357LIG      C 5090   5.455  -0.068   8.405
  357LIG    OT1 5091   5.441   0.005   8.290
  357LIG    OT2 5092   5.515  -0.190   8.416
  358LIG      N 5093   2.364   7.009   5.040
  358LIG     H1 5094   2.311   7.080   5.087
  358LIG     H2 5095   2.303   6.941   5.001
  358LIG     H3 5096   2.426   6.966   5.106
  358LIG     CA 5097   2.448   7.073   4.930
  358LIG     HA 5098   2.387   7.117   4.864
  358LIG     CB 5099   2.539   7.177   4.991
  358LIG    HB1 5100   2.598   7.133   5.059
  358LIG    HB2 5101   2.485   7.247   5.036
  358LIG     CG 5102   2.624   7.240   4.885
  358LIG    OD1 5103   2.738   7.174   4.857
  358LIG    OD2 5104   2.591   7.345   4.829
  358LIG      C 5105   2.532   6.964   4.858
  358LIG    OT1 5106   2.519   6.835   4.903
  358LIG    OT2 5107   2.612   7.005   4.756
  359LIG      N 5108   8.472   2.327   5.206
  359LIG     H1 5109   8.425   2.312   5.119
  359LIG     H2 5110   8.571   2.330   5.190
  359LIG     H3 5111   8.450   2.252   5.269
  359LIG     CA 5112   8.427   2.459   5.267
  359LIG     HA 5113   8.448   2.533   5.204
  359LIG     CB 5114   8.277   2.453   5.290
  359LIG    HB1 5115   8.255   2.376   5.350
  359LIG    HB2 5116   8.231   2.440   5.203
  359LIG     CG 5117   8.229   2.581   5.351
  359LIG    OD1 5118   8.237   2.585   5.486
  359LIG    OD2 5119   8.185   2.674   5.284
  359LIG      C 5120   8.500   2.482   5.402
  359LIG    OT1 5121   8.589   2.386   5.443
  359LIG    OT2 5122   8.470   2.596   5.470
  360LIG      N 5123   9.714   5.625   5.271
  360LIG     H1 5124   9.649   5.667   5.208
  360LIG     H2 5125   9.695   5.656   5.364
  360LIG     H3 5126   9.807   5.651   5.245
  360LIG     CA 5127   9.701   5.474   5.264
  360LIG     HA 5128   9.608   5.448   5.290
  360LIG     CB 5129   9.728   5.428   5.123
  360LIG    HB1 5130   9.820   5.457   5.096
  360LIG    HB2 5131   9.662   5.470   5.061
  360LIG     CG 5132   9.717   5.279   5.113
  360LIG    OD1 5133   9.831   5.212   5.143
  360LIG    OD2 5134   9.613   5.223   5.079
  360LIG      C 5135   9.802   5.407   5.362
  360LIG    OT1 5136   9.883   5.491   5.434
  360LIG    OT2 5137   9.802   5.271   5.367
  361LIG      N 5138   0.382   3.385   4.607
  361LIG     H1 5139   0.406   3.433   4.691
  361LIG     H2 5140   0.284   3.398   4.588
  361LIG     H3 5141   0.401   3.287   4.619
  361LIG     CA 5142   0.464   3.439   4.492
  361LIG     HA 5143   0.446   3.536   4.480
  361LIG     CB 5144   0.611   3.419   4.523
  361LIG    HB1 5145   0.630   3.322   4.537
  361LIG    HB2 5146   0.634   3.469   4.606
  361LIG     CG 5147   0.695   3.470   4.410
  361LIG    OD1 5148   0.717   3.381   4.311
  361LIG    OD2 5149   0.742   3.584   4.408
  361LIG      C 5150   0.427   3.363   4.361
  361LIG    OT1 5151   0.332   3.266   4.370
  361LIG    OT2 5152   0.493   3.400   4.247
  362LIG      N 5153   9.103   2.033   5.235
  362LIG     H1 5154   9.143   1.955   5.284
  362LIG     H2 5155   9.094   2.110   5.298
  362LIG     H3 5156   9.012   2.007   5.200
  362LIG     CA 5157   9.192   2.071   5.119
  362LIG     HA 5158   9.283   2.096   5.153
  362LIG     CB 5159   9.206   1.953   5.026
  362LIG    HB1 5160   9.115   1.926   4.993
  362LIG    HB2 5161   9.246   1.876   5.074
  362LIG     CG 5162   9.292   1.988   4.909
  362LIG    OD1 5163   9.227   2.046   4.805
  362LIG    OD2 5164   9.413   1.964   4.907
  362LIG      C 5165   9.131   2.192   5.043
  362LIG    OT1 5166   9.013   2.242   5.090
  362LIG    OT2 5167   9.200   2.239   4.935
  363LIG      N 5168   5.604   8.992   7.554
  363LIG     H1 5169   5.536   9.000   7.628
  363LIG     H2 5170   5.595   8.903   7.510
  363LIG     H3 5171   5.696   9.002   7.592
  363LIG     CA 5172   5.580   9.102   7.452
  363LIG     HA 5173   5.488   9.093   7.414
  363LIG     CB 5174   5.592   9.236   7.520
  363LIG    HB1 5175   5.684   9.245   7.560
  363LIG    HB2 5176   5.524   9.244   7.592
  363LIG     CG 5177   5.571   9.347   7.422
  363LIG    OD1 5178   5.682   9.385   7.354
  363LIG    OD2 5179   5.461   9.400   7.404
  363LIG      C 5180   5.684   9.091   7.337
  363LIG    OT1 5181   5.776   8.990   7.346
  363LIG    OT2 5182   5.676   9.183   7.237
  364LIG      N 5183   0.393   5.881   1.955
  364LIG     H1 5184   0.449   5.955   1.993
  364LIG     H2 5185   0.452   5.809   1.919
  364LIG     H3 5186   0.336   5.917   1.881
  364LIG     CA 5187   0.304   5.825   2.064
  364LIG     HA 5188   0.360   5.789   2.138
  364LIG     CB 5189   0.216   5.935   2.118
  364LIG    HB1 5190   0.160   5.973   2.043
  364LIG    HB2 5191   0.272   6.008   2.156
  364LIG     CG 5192   0.125   5.883   2.225
  364LIG    OD1 5193   0.009   5.830   2.180
  364LIG    OD2 5194   0.154   5.889   2.344
  364LIG      C 5195   0.216   5.710   2.007
  364LIG    OT1 5196   0.232   5.680   1.874
  364LIG    OT2 5197   0.130   5.649   2.093
  365LIG      N 5198   2.360   8.230   7.908
  365LIG     H1 5199   2.342   8.201   8.002
  365LIG     H2 5200   2.273   8.242   7.860
  365LIG     H3 5201   2.415   8.162   7.861
  365LIG     CA 5202   2.434   8.363   7.910
  365LIG     HA 5203   2.380   8.431   7.957
  365LIG     CB 5204   2.565   8.344   7.984
  365LIG    HB1 5205   2.620   8.273   7.938
  365LIG    HB2 5206   2.547   8.316   8.077
  365LIG     CG 5207   2.643   8.472   7.986
  365LIG    OD1 5208   2.721   8.493   7.878
  365LIG    OD2 5209   2.636   8.552   8.079
  365LIG      C 5210   2.462   8.409   7.764
  365LIG    OT1 5211   2.418   8.329   7.663
  365LIG    OT2 5212   2.529   8.527   7.749
  366LIG      N 5213   9.192   0.611   2.064
  366LIG     H1 5214   9.264   0.559   2.110
  366LIG     H2 5215   9.118   0.630   2.128
  366LIG     H3 5216   9.157   0.557   1.986
  366LIG     CA 5217   9.249   0.742   2.011
  366LIG     HA 5218   9.285   0.795   2.088
  366LIG     CB 5219   9.362   0.711   1.916
  366LIG    HB1 5220   9.328   0.655   1.840
  366LIG    HB2 5221   9.434   0.660   1.963
  366LIG     CG 5222   9.420   0.838   1.861
  366LIG    OD1 5223   9.357   0.886   1.752
  366LIG    OD2 5224   9.518   0.892   1.911
  366LIG      C 5225   9.139   0.822   1.939
  366LIG    OT1 5226   9.014   0.767   1.933
  366LIG    OT2 5227   9.175   0.943   1.886
  367LIG      N 5228   7.788   3.497   0.136
  367LIG     H1 5229   7.774   3.585   0.180
  367LIG     H2 5230   7.878   3.461   0.161
  367LIG     H3 5231   7.782   3.507   0.037
  367LIG     CA 5232   7.681   3.399   0.182
  367LIG     HA 5233   7.686   3.389   0.282
  367LIG     CB 5234   7.545   3.455   0.145
  367LIG    HB1 5235   7.540   3.468   0.046
  367LIG    HB2 5236   7.531   3.543   0.190
  367LIG     CG 5237   7.437   3.360   0.188
  367LIG    OD1 5238   7.408   3.263   0.099
  367LIG    OD2 5239   7.378   3.372   0.296
  367LIG      C 5240   7.702   3.261   0.114
  367LIG    OT1 5241   7.808   3.249   0.029
  367LIG    OT2 5242   7.613   3.162   0.146
  368LIG      N 5243   3.353   0.866   9.244
  368LIG     H1 5244   3.415   0.944   9.253
  368LIG     H2 5245   3.271   0.894   9.194
  368LIG     H3 5246   3.327   0.834   9.336
  368LIG     CA 5247   3.422   0.754   9.170
  368LIG     HA 5248   3.448   0.785   9.079
  368LIG     CB 5249   3.546   0.713   9.246
  368LIG    HB1 5250   3.521   0.684   9.338
  368LIG    HB2 5251   3.608   0.791   9.253
  368LIG     CG 5252   3.617   0.601   9.176
  368LIG    OD1 5253   3.572   0.478   9.207
  368LIG    OD2 5254   3.708   0.621   9.096
  368LIG      C 5255   3.326   0.632   9.156
  368LIG    OT1 5256   3.202   0.644   9.211
  368LIG    OT2 5257   3.374   0.522   9.091
  369LIG      N 5258   2.623   0.712   0.353
  369LIG     H1 5259   2.720   0.697   0.336
  369LIG     H2 5260   2.611   0.751   0.445
  369LIG     H3 5261   2.574   0.624   0.347
  369LIG     CA 5262   2.566   0.807   0.250
  369LIG     HA 5263   2.615   0.894   0.255
  369LIG     CB 5264   2.587   0.748   0.112
  369LIG    HB1 5265   2.540   0.659   0.107
  369LIG    HB2 5266   2.684   0.734   0.095
  369LIG     CG 5267   2.531   0.838   0.007
  369LIG    OD1 5268   2.399   0.822  -0.019
  369LIG    OD2 5269   2.600   0.921  -0.052
  369LIG      C 5270   2.415   0.830   0.275
  369LIG    OT1 5271   2.359   0.765   0.382
  369LIG    OT2 5272   2.350   0.914   0.190
  370LIG      N 5273   4.503   0.082   5.619
  370LIG     H1 5274   4.519  -0.013   5.593
  370LIG     H2 5275   4.513   0.092   5.719
  370LIG     H3 5276   4.411   0.110   5.592
  370LIG     CA 5277   4.604   0.171   5.549
  370LIG     HA 5278   4.697   0.144   5.576
  370LIG     CB 5279   4.589   0.155   5.400
  370LIG    HB1 5280   4.496   0.179   5.373
  370LIG    HB2 5281   4.606   0.060   5.375
  370LIG     CG 5282   4.687   0.242   5.327
  370LIG    OD1 5283   4.644   0.368   5.305
  370LIG    OD2 5284   4.797   0.201   5.290
  370LIG      C 5285   4.581   0.320   5.589
  370LIG    OT1 5286   4.479   0.346   5.675
  370LIG    OT2 5287   4.664   0.412   5.533
  371LIG      N 5288   7.905   9.155   4.408
  371LIG     H1 5289   7.945   9.156   4.317
  371LIG     H2 5290   7.935   9.073   4.457
  371LIG     H3 5291   7.805   9.156   4.401
  371LIG     CA 5292   7.951   9.279   4.484
  371LIG     HA 5293   8.051   9.279   4.491
  371LIG     CB 5294   7.907   9.402   4.408
  371LIG    HB1 5295   7.807   9.401   4.399
  371LIG    HB2 5296   7.948   9.402   4.318
  371LIG     CG 5297   7.949   9.526   4.481
  371LIG    OD1 5298   7.862   9.568   4.576
  371LIG    OD2 5299   8.054   9.585   4.456
  371LIG      C 5300   7.889   9.279   4.627
  371LIG    OT1 5301   7.808   9.174   4.660
  371LIG    OT2 5302   7.921   9.384   4.708
  372LIG      N 5303   8.546   7.265   0.630
  372LIG     H1 5304   8.585   7.306   0.713
  372LIG     H2 5305   8.450   7.293   0.621
  372LIG     H3 5306   8.552   7.166   0.635
  372LIG     CA 5307   8.624   7.313   0.508
  372LIG     HA 5308   8.619   7.413   0.503
  372LIG     CB 5309   8.769   7.272   0.524
  372LIG    HB1 5310   8.774   7.172   0.532
  372LIG    HB2 5311   8.807   7.313   0.606
  372LIG     CG 5312   8.849   7.316   0.405
  372LIG    OD1 5313   8.848   7.230   0.301
  372LIG    OD2 5314   8.911   7.423   0.403
  372LIG      C 5315   8.565   7.251   0.379
  372LIG    OT1 5316   8.457   7.168   0.393
  372LIG    OT2 5317   8.624   7.285   0.261
  373LIG      N 5318   2.697   4.724   9.966
  373LIG     H1 5319   2.734   4.814   9.988
  373LIG     H2 5320   2.763   4.653   9.993
  373LIG     H3 5321   2.679   4.718   9.868
  373LIG     CA 5322   2.567   4.703  10.042
  373LIG     HA 5323   2.584   4.709  10.140
  373LIG     CB 5324   2.469   4.810  10.002
  373LIG    HB1 5325   2.453   4.806   9.903
  373LIG    HB2 5326   2.506   4.900  10.025
  373LIG     CG 5327   2.339   4.792  10.074
  373LIG    OD1 5328   2.252   4.708  10.013
  373LIG    OD2 5329   2.313   4.849  10.179
  373LIG      C 5330   2.509   4.563  10.008
  373LIG    OT1 5331   2.579   4.485   9.921
  373LIG    OT2 5332   2.391   4.528  10.069
  374LIG      N 5333   2.234   1.956   8.588
  374LIG     H1 5334   2.320   1.908   8.575
  374LIG     H2 5335   2.198   1.986   8.500
  374LIG     H3 5336   2.248   2.036   8.647
  374LIG     CA 5337   2.133   1.863   8.654
  374LIG     HA 5338   2.119   1.783   8.596
  374LIG     CB 5339   2.189   1.818   8.788
  374LIG    HB1 5340   2.206   1.898   8.846
  374LIG    HB2 5341   2.275   1.770   8.774
  374LIG     CG 5342   2.092   1.727   8.857
  374LIG    OD1 5343   1.998   1.790   8.931
  374LIG    OD2 5344   2.098   1.605   8.847
  374LIG      C 5345   1.998   1.937   8.676
  374LIG    OT1 5346   1.991   2.067   8.634
  374LIG    OT2 5347   1.898   1.867   8.734
  375LIG      N 5348   0.493   2.408   2.442
  375LIG     H1 5349   0.471   2.356   2.360
  375LIG     H2 5350   0.469   2.355   2.523
  375LIG     H3 5351   0.442   2.494   2.441
  375LIG     CA 5352   0.642   2.439   2.444
  375LIG     HA 5353   0.694   2.354   2.444
  375LIG     CB 5354   0.677   2.518   2.320
  375LIG    HB1 5355   0.624   2.603   2.318
  375LIG    HB2 5356   0.656   2.465   2.238
  375LIG     CG 5357   0.823   2.552   2.319
  375LIG    OD1 5358   0.856   2.665   2.385
  375LIG    OD2 5359   0.907   2.482   2.261
  375LIG      C 5360   0.678   2.521   2.571
  375LIG    OT1 5361   0.575   2.551   2.656
  375LIG    OT2 5362   0.808   2.557   2.587
  376LIG      N 5363   0.791   3.502   8.490
  376LIG     H1 5364   0.774   3.487   8.392
  376LIG     H2 5365   0.717   3.462   8.544
  376LIG     H3 5366   0.797   3.600   8.508
  376LIG     CA 5367   0.923   3.436   8.529
  376LIG     HA 5368   0.918   3.338   8.510
  376LIG     CB 5369   1.034   3.496   8.446
  376LIG    HB1 5370   1.038   3.595   8.462
  376LIG    HB2 5371   1.016   3.480   8.349
  376LIG     CG 5372   1.166   3.435   8.482
  376LIG    OD1 5373   1.229   3.493   8.586
  376LIG    OD2 5374   1.213   3.339   8.421
  376LIG      C 5375   0.951   3.459   8.679
  376LIG    OT1 5376   0.858   3.531   8.750
  376LIG    OT2 5377   1.066   3.406   8.730
  377LIG      N 5378   0.694   7.298   0.944
  377LIG     H1 5379   0.700   7.213   0.892
  377LIG     H2 5380   0.738   7.287   1.033
  377LIG     H3 5381   0.597   7.322   0.957
  377LIG     CA 5382   0.762   7.410   0.867
  377LIG     HA 5383   0.858   7.387   0.853
  377LIG     CB 5384   0.695   7.426   0.733
  377LIG    HB1 5385   0.598   7.447   0.746
  377LIG    HB2 5386   0.703   7.341   0.681
  377LIG     CG 5387   0.759   7.536   0.655
  377LIG    OD1 5388   0.710   7.659   0.680
  377LIG    OD2 5389   0.849   7.516   0.573
  377LIG      C 5390   0.753   7.543   0.947
  377LIG    OT1 5391   0.687   7.539   1.067
  377LIG    OT2 5392   0.810   7.653   0.891
  378LIG      N 5393   4.662   0.011   4.939
  378LIG     H1 5394   4.734   0.078   4.956
  378LIG     H2 5395   4.623  -0.020   5.027
  378LIG     H3 5396   4.700  -0.068   4.890
  378LIG     CA 5397   4.552   0.073   4.855
  378LIG     HA 5398   4.514   0.152   4.903
  378LIG     CB 5399   4.612   0.120   4.724
  378LIG    HB1 5400   4.653   0.042   4.676
  378LIG    HB2 5401   4.682   0.188   4.742
  378LIG     CG 5402   4.506   0.181   4.638
  378LIG    OD1 5403   4.438   0.094   4.561
  378LIG    OD2 5404   4.484   0.302   4.636
  378LIG      C 5405   4.440  -0.031   4.828
  378LIG    OT1 5406   4.457  -0.156   4.881
  378LIG    OT2 5407   4.334   0.010   4.753
  379LIG      N 5408   9.525   9.025   3.254
  379LIG     H1 5409   9.518   9.034   3.154
  379LIG     H2 5410   9.612   8.983   3.278
  379LIG     H3 5411   9.449   8.970   3.287
  379LIG     CA 5412   9.517   9.163   3.317
  379LIG     HA 5413   9.592   9.220   3.283
  379LIG     CB 5414   9.385   9.228   3.278
  379LIG    HB1 5415   9.309   9.170   3.309
  379LIG    HB2 5416   9.380   9.236   3.179
  379LIG     CG 5417   9.373   9.363   3.340
  379LIG    OD1 5418   9.322   9.364   3.465
  379LIG    OD2 5419   9.406   9.466   3.281
  379LIG      C 5420   9.526   9.152   3.471
  379LIG    OT1 5421   9.539   9.026   3.524
  379LIG    OT2 5422   9.520   9.267   3.543
  380LIG      N 5423   3.466   1.485   1.948
  380LIG     H1 5424   3.405   1.563   1.931
  380LIG     H2 5425   3.511   1.496   2.037
  380LIG     H3 5426   3.535   1.480   1.876
  380LIG     CA 5427   3.385   1.356   1.949
  380LIG     HA 5428   3.315   1.361   2.021
  380LIG     CB 5429   3.316   1.341   1.815
  380LIG    HB1 5430   3.385   1.339   1.742
  380LIG    HB2 5431   3.255   1.418   1.800
  380LIG     CG 5432   3.236   1.214   1.812
  380LIG    OD1 5433   3.305   1.104   1.775
  380LIG    OD2 5434   3.116   1.211   1.840
  380LIG      C 5435   3.478   1.235   1.975
  380LIG    OT1 5436   3.611   1.261   1.992
  380LIG    OT2 5437   3.419   1.112   1.979
  381LIG      N 5438   1.287   9.327   4.735
  381LIG     H1 5439   1.274   9.228   4.735
  381LIG     H2 5440   1.210   9.371   4.783
  381LIG     H3 5441   1.291   9.361   4.641
  381LIG     CA 5442   1.416   9.362   4.806
  381LIG     HA 5443   1.413   9.329   4.900
  381LIG     CB 5444   1.531   9.295   4.734
  381LIG    HB1 5445   1.534   9.326   4.639
  381LIG    HB2 5446   1.518   9.196   4.736
  381LIG     CG 5447   1.661   9.328   4.801
  381LIG    OD1 5448   1.719   9.443   4.759
  381LIG    OD2 5449   1.712   9.256   4.886
  381LIG      C 5450   1.437   9.516   4.807
  381LIG    OT1 5451   1.341   9.592   4.747
  381LIG    OT2 5452   1.550   9.563   4.867
  382LIG      N 5453   6.375   9.442   6.988
  382LIG     H1 5454   6.313   9.457   6.911
  382LIG     H2 5455   6.469   9.459   6.959
  382LIG     H3 5456   6.366   9.348   7.020
  382LIG     CA 5457   6.339   9.537   7.101
  382LIG     HA 5458   6.347   9.631   7.069
  382LIG     CB 5459   6.196   9.511   7.142
  382LIG    HB1 5460   6.186   9.415   7.172
  382LIG    HB2 5461   6.135   9.526   7.065
  382LIG     CG 5462   6.156   9.601   7.255
  382LIG    OD1 5463   6.187   9.556   7.378
  382LIG    OD2 5464   6.099   9.709   7.236
  382LIG      C 5465   6.434   9.514   7.222
  382LIG    OT1 5466   6.530   9.418   7.208
  382LIG    OT2 5467   6.413   9.592   7.332
  383LIG      N 5468   4.194   1.619   5.155
  383LIG     H1 5469   4.213   1.525   5.183
  383LIG     H2 5470   4.209   1.628   5.056
  383LIG     H3 5471   4.256   1.681   5.203
  383LIG     CA 5472   4.051   1.656   5.189
  383LIG     HA 5473   3.989   1.594   5.141
  383LIG     CB 5474   4.030   1.641   5.338
  383LIG    HB1 5475   4.094   1.701   5.387
  383LIG    HB2 5476   4.048   1.546   5.365
  383LIG     CG 5477   3.890   1.677   5.375
  383LIG    OD1 5478   3.870   1.809   5.398
  383LIG    OD2 5479   3.800   1.593   5.385
  383LIG      C 5480   4.021   1.802   5.146
  383LIG    OT1 5481   4.124   1.871   5.087
  383LIG    OT2 5482   3.896   1.850   5.170
  384LIG      N 5483   8.410   3.907   6.255
  384LIG     H1 5484   8.457   3.819   6.258
  384LIG     H2 5485   8.455   3.972   6.315
  384LIG     H3 5486   8.315   3.894   6.284
  384LIG     CA 5487   8.411   3.960   6.113
  384LIG     HA 5488   8.505   3.972   6.082
  384LIG     CB 5489   8.343   3.860   6.022
  384LIG    HB1 5490   8.248   3.845   6.053
  384LIG    HB2 5491   8.391   3.773   6.025
  384LIG     CG 5492   8.341   3.910   5.881
  384LIG    OD1 5493   8.236   3.990   5.850
  384LIG    OD2 5494   8.427   3.879   5.799
  384LIG      C 5495   8.337   4.096   6.106
  384LIG    OT1 5496   8.285   4.144   6.223
  384LIG    OT2 5497   8.329   4.157   5.985
  385LIG      N 5498   9.845   5.740   2.669
  385LIG     H1 5499   9.900   5.663   2.702
  385LIG     H2 5500   9.844   5.740   2.569
  385LIG     H3 5501   9.884   5.826   2.702
  385LIG     CA 5502   9.703   5.727   2.721
  385LIG     HA 5503   9.663   5.641   2.689
  385LIG     CB 5504   9.706   5.726   2.872
  385LIG    HB1 5505   9.748   5.811   2.905
  385LIG    HB2 5506   9.760   5.649   2.904
  385LIG     CG 5507   9.567   5.714   2.927
  385LIG    OD1 5508   9.502   5.832   2.942
  385LIG    OD2 5509   9.517   5.606   2.958
  385LIG      C 5510   9.616   5.845   2.670
  385LIG    OT1 5511   9.678   5.938   2.591
  385LIG    OT2 5512   9.486   5.848   2.709
  386LIG      N 5513   0.285   1.143   6.048
  386LIG     H1 5514   0.199   1.183   6.080
  386LIG     H2 5515   0.272   1.108   5.955
  386LIG     H3 5516   0.313   1.069   6.108
  386LIG     CA 5517   0.394   1.250   6.047
  386LIG     HA 5518   0.366   1.325   5.987
  386LIG     CB 5519   0.411   1.303   6.188
  386LIG    HB1 5520   0.436   1.228   6.249
  386LIG    HB2 5521   0.325   1.343   6.219
  386LIG     CG 5522   0.518   1.407   6.191
  386LIG    OD1 5523   0.643   1.359   6.207
  386LIG    OD2 5524   0.493   1.528   6.181
  386LIG      C 5525   0.527   1.189   5.997
  386LIG    OT1 5526   0.527   1.057   5.962
  386LIG    OT2 5527   0.635   1.273   5.990
  387LIG      N 5528   8.979   3.098   7.596
  387LIG     H1 5529   9.027   3.180   7.629
  387LIG     H2 5530   8.984   3.095   7.496
  387LIG     H3 5531   8.883   3.103   7.624
  387LIG     CA 5532   9.043   2.974   7.655
  387LIG     HA 5533   9.139   2.970   7.628
  387LIG     CB 5534   9.035   2.982   7.806
  387LIG    HB1 5535   8.938   2.989   7.834
  387LIG    HB2 5536   9.083   3.063   7.838
  387LIG     CG 5537   9.095   2.860   7.868
  387LIG    OD1 5538   9.011   2.755   7.882
  387LIG    OD2 5539   9.213   2.856   7.905
  387LIG      C 5540   8.969   2.847   7.605
  387LIG    OT1 5541   8.863   2.866   7.520
  387LIG    OT2 5542   9.014   2.727   7.650
  388LIG      N 5543   6.704   7.912   4.590
  388LIG     H1 5544   6.777   7.924   4.522
  388LIG     H2 5545   6.723   7.831   4.645
  388LIG     H3 5546   6.617   7.900   4.543
  388LIG     CA 5547   6.697   8.034   4.679
  388LIG     HA 5548   6.785   8.046   4.726
  388LIG     CB 5549   6.670   8.156   4.593
  388LIG    HB1 5550   6.583   8.143   4.544
  388LIG    HB2 5551   6.743   8.168   4.527
  388LIG     CG 5552   6.661   8.279   4.678
  388LIG    OD1 5553   6.539   8.303   4.730
  388LIG    OD2 5554   6.758   8.352   4.699
  388LIG      C 5555   6.584   8.017   4.784
  388LIG    OT1 5556   6.513   7.901   4.780
  388LIG    OT2 5557   6.566   8.119   4.872
  389LIG      N 5558   7.476   1.827   6.671
  389LIG     H1 5559   7.551   1.859   6.614
  389LIG     H2 5560   7.486   1.862   6.764
  389LIG     H3 5561   7.476   1.727   6.673
  389LIG     CA 5562   7.344   1.874   6.613
  389LIG     HA 5563   7.343   1.974   6.610
  389LIG     CB 5564   7.330   1.821   6.472
  389LIG    HB1 5565   7.334   1.721   6.473
  389LIG    HB2 5566   7.405   1.855   6.416
  389LIG     CG 5567   7.200   1.865   6.411
  389LIG    OD1 5568   7.095   1.785   6.439
  389LIG    OD2 5569   7.191   1.966   6.342
  389LIG      C 5570   7.226   1.824   6.700
  389LIG    OT1 5571   7.257   1.748   6.810
  389LIG    OT2 5572   7.100   1.858   6.660
  390LIG      N 5573   8.828   7.805   4.135
  390LIG     H1 5574   8.758   7.738   4.159
  390LIG     H2 5575   8.820   7.827   4.037
  390LIG     H3 5576   8.919   7.768   4.154
  390LIG     CA 5577   8.808   7.932   4.217
  390LIG     HA 5578   8.717   7.969   4.199
  390LIG     CB 5579   8.819   7.897   4.364
  390LIG    HB1 5580   8.909   7.856   4.382
  390LIG    HB2 5581   8.748   7.830   4.388
  390LIG     CG 5582   8.801   8.019   4.448
  390LIG    OD1 5583   8.914   8.090   4.470
  390LIG    OD2 5584   8.692   8.052   4.495
  390LIG      C 5585   8.916   8.037   4.180
  390LIG    OT1 5586   9.007   8.001   4.084
  390LIG    OT2 5587   8.912   8.156   4.245
  391LIG      N 5588   9.089   5.946   1.002
  391LIG     H1 5589   8.990   5.959   0.994
  391LIG     H2 5590   9.116   5.952   1.098
  391LIG     H3 5591   9.136   6.018   0.950
  391LIG     CA 5592   9.128   5.810   0.946
  391LIG     HA 5593   9.081   5.739   0.998
  391LIG     CB 5594   9.086   5.803   0.801
  391LIG    HB1 5595   9.131   5.876   0.749
  391LIG    HB2 5596   8.987   5.814   0.794
  391LIG     CG 5597   9.124   5.670   0.743
  391LIG    OD1 5598   9.249   5.664   0.694
  391LIG    OD2 5599   9.046   5.575   0.739
  391LIG      C 5600   9.281   5.790   0.958
  391LIG    OT1 5601   9.354   5.892   1.013
  391LIG    OT2 5602   9.332   5.672   0.912
  392LIG      N 5603   8.996   4.469   7.405
  392LIG     H1 5604   9.079   4.468   7.350
  392LIG     H2 5605   8.975   4.564   7.431
  392LIG     H3 5606   9.009   4.414   7.488
  392LIG     CA 5607   8.880   4.412   7.324
  392LIG     HA 5608   8.868   4.467   7.242
  392LIG     CB 5609   8.914   4.270   7.285
  392LIG    HB1 5610   8.930   4.215   7.368
  392LIG    HB2 5611   8.997   4.269   7.230
  392LIG     CG 5612   8.802   4.210   7.206
  392LIG    OD1 5613   8.705   4.153   7.281
  392LIG    OD2 5614   8.800   4.211   7.083
  392LIG      C 5615   8.750   4.414   7.409
  392LIG    OT1 5616   8.759   4.464   7.536
  392LIG    OT2 5617   8.637   4.366   7.350
  393LIG      N 5618   9.554   4.218   3.017
  393LIG     H1 5619   9.471   4.247   2.969
  393LIG     H2 5620   9.530   4.181   3.106
  393LIG     H3 5621   9.615   4.297   3.028
  393LIG     CA 5622   9.625   4.111   2.935
  393LIG     HA 5623   9.565   4.033   2.923
  393LIG     CB 5624   9.660   4.168   2.799
  393LIG    HB1 5625   9.718   4.249   2.811
  393LIG    HB2 5626   9.576   4.196   2.752
  393LIG     CG 5627   9.732   4.066   2.717
  393LIG    OD1 5628   9.866   4.063   2.735
  393LIG    OD2 5629   9.673   3.993   2.637
  393LIG      C 5630   9.755   4.067   3.008
  393LIG    OT1 5631   9.783   4.127   3.128
  393LIG    OT2 5632   9.831   3.971   2.947
  394LIG      N 5633   0.942   7.226   1.924
  394LIG     H1 5634   0.904   7.315   1.898
  394LIG     H2 5635   1.038   7.221   1.895
  394LIG     H3 5636   0.890   7.153   1.879
  394LIG     CA 5637   0.932   7.209   2.074
  394LIG     HA 5638   0.983   7.282   2.119
  394LIG     CB 5639   0.787   7.219   2.116
  394LIG    HB1 5640   0.734   7.147   2.069
  394LIG    HB2 5641   0.750   7.308   2.090
  394LIG     CG 5642   0.773   7.201   2.264
  394LIG    OD1 5643   0.764   7.072   2.305
  394LIG    OD2 5644   0.770   7.296   2.342
  394LIG      C 5645   0.990   7.072   2.116
  394LIG    OT1 5646   1.039   6.992   2.016
  394LIG    OT2 5647   0.989   7.042   2.249
  395LIG      N 5648   1.393   9.774   6.991
  395LIG     H1 5649   1.335   9.790   7.071
  395LIG     H2 5650   1.335   9.757   6.911
  395LIG     H3 5651   1.452   9.696   7.008
  395LIG     CA 5652   1.479   9.897   6.966
  395LIG     HA 5653   1.420   9.976   6.949
  395LIG     CB 5654   1.564   9.923   7.088
  395LIG    HB1 5655   1.622   9.843   7.106
  395LIG    HB2 5656   1.506   9.940   7.167
  395LIG     CG 5657   1.652  10.042   7.065
  395LIG    OD1 5658   1.770  10.016   7.004
  395LIG    OD2 5659   1.620  10.156   7.101
  395LIG      C 5660   1.569   9.873   6.842
  395LIG    OT1 5661   1.558   9.752   6.778
  395LIG    OT2 5662   1.653   9.974   6.806
  396LIG      N 5663   0.280   1.494   4.053
  396LIG     H1 5664   0.290   1.395   4.064
  396LIG     H2 5665   0.343   1.542   4.114
  396LIG     H3 5666   0.186   1.521   4.075
  396LIG     CA 5667   0.309   1.533   3.909
  396LIG     HA 5668   0.403   1.506   3.886
  396LIG     CB 5669   0.213   1.460   3.818
  396LIG    HB1 5670   0.119   1.484   3.842
  396LIG    HB2 5671   0.225   1.361   3.829
  396LIG     CG 5672   0.238   1.496   3.675
  396LIG    OD1 5673   0.174   1.607   3.632
  396LIG    OD2 5674   0.311   1.429   3.601
  396LIG      C 5675   0.293   1.686   3.890
  396LIG    OT1 5676   0.257   1.759   4.000
  396LIG    OT2 5677   0.317   1.736   3.766
  397LIG      N 5678   1.451   1.485   6.893
  397LIG     H1 5679   1.421   1.460   6.985
  397LIG     H2 5680   1.409   1.572   6.867
  397LIG     H3 5681   1.424   1.414   6.828
  397LIG     CA 5682   1.602   1.500   6.890
  397LIG     HA 5683   1.630   1.571   6.955
  397LIG     CB 5684   1.665   1.369   6.931
  397LIG    HB1 5685   1.636   1.296   6.868
  397LIG    HB2 5686   1.636   1.344   7.023
  397LIG     CG 5687   1.814   1.379   6.928
  397LIG    OD1 5688   1.871   1.354   6.808
  397LIG    OD2 5689   1.880   1.407   7.028
  397LIG      C 5690   1.649   1.539   6.748
  397LIG    OT1 5691   1.553   1.554   6.652
  397LIG    OT2 5692   1.783   1.556   6.729
  398LIG      N 5693   1.935   0.809   4.366
  398LIG     H1 5694   1.985   0.886   4.407
  398LIG     H2 5695   1.980   0.782   4.280
  398LIG     H3 5696   1.841   0.837   4.347
  398LIG     CA 5697   1.934   0.692   4.462
  398LIG     HA 5698   2.028   0.664   4.482
  398LIG     CB 5699   1.868   0.735   4.591
  398LIG    HB1 5700   1.774   0.765   4.572
  398LIG    HB2 5701   1.918   0.810   4.631
  398LIG     CG 5702   1.863   0.621   4.688
  398LIG    OD1 5703   1.757   0.539   4.675
  398LIG    OD2 5704   1.950   0.605   4.774
  398LIG      C 5705   1.857   0.572   4.400
  398LIG    OT1 5706   1.804   0.590   4.275
  398LIG    OT2 5707   1.847   0.459   4.475
  399LIG      N 5708   4.974   4.138   9.530
  399LIG     H1 5709   4.919   4.218   9.504
  399LIG     H2 5710   5.007   4.149   9.623
  399LIG     H3 5711   5.051   4.129   9.467
  399LIG     CA 5712   4.888   4.013   9.521
  399LIG     HA 5713   4.810   4.022   9.582
  399LIG     CB 5714   4.837   3.999   9.379
  399LIG    HB1 5715   4.914   3.992   9.316
  399LIG    HB2 5716   4.782   4.078   9.355
  399LIG     CG 5717   4.752   3.876   9.366
  399LIG    OD1 5718   4.821   3.762   9.339
  399LIG    OD2 5719   4.630   3.878   9.378
  399LIG      C 5720   4.971   3.888   9.560
  399LIG    OT1 5721   5.102   3.909   9.594
  399LIG    OT2 5722   4.908   3.768   9.556
  400LIG      N 5723   6.069   1.567   6.491
  400LIG     H1 5724   6.137   1.525   6.432
  400LIG     H2 5725   6.095   1.661   6.511
  400LIG     H3 5726   6.062   1.515   6.576
  400LIG     CA 5727   5.933   1.565   6.421
  400LIG     HA 5728   5.939   1.616   6.336
  400LIG     CB 5729   5.896   1.422   6.391
  400LIG    HB1 5730   5.892   1.369   6.477
  400LIG    HB2 5731   5.964   1.381   6.331
  400LIG     CG 5732   5.762   1.416   6.324
  400LIG    OD1 5733   5.656   1.412   6.408
  400LIG    OD2 5734   5.750   1.413   6.201
  400LIG      C 5735   5.826   1.630   6.513
  400LIG    OT1 5736   5.867   1.676   6.635
  400LIG    OT2 5737   5.699   1.635   6.464
  401LIG      N 5738   6.632   0.331   3.175
  401LIG     H1 5739   6.543   0.375   3.164
  401LIG     H2 5740   6.651   0.318   3.272
  401LIG     H3 5741   6.703   0.388   3.134
  401LIG     CA 5742   6.631   0.196   3.105
  401LIG     HA 5743   6.559   0.139   3.145
  401LIG     CB 5744   6.600   0.217   2.958
  401LIG    HB1 5745   6.670   0.277   2.918
  401LIG    HB2 5746   6.511   0.261   2.948
  401LIG     CG 5747   6.599   0.086   2.885
  401LIG    OD1 5748   6.720   0.045   2.841
  401LIG    OD2 5749   6.496   0.022   2.866
  401LIG      C 5750   6.769   0.126   3.120
  401LIG    OT1 5751   6.865   0.193   3.191
  401LIG    OT2 5752   6.783   0.004   3.063
  402LIG      N 5753   8.111   6.714   8.013
  402LIG     H1 5754   8.070   6.789   8.065
  402LIG     H2 5755   8.210   6.724   8.012
  402LIG     H3 5756   8.076   6.716   7.919
  402LIG     CA 5757   8.073   6.582   8.078
  402LIG     HA 5758   8.107   6.580   8.172
  402LIG     CB 5759   7.923   6.569   8.079
  402LIG    HB1 5760   7.887   6.574   7.985
  402LIG    HB2 5761   7.883   6.644   8.132
  402LIG     CG 5762   7.882   6.439   8.141
  402LIG    OD1 5763   7.877   6.334   8.056
  402LIG    OD2 5764   7.853   6.429   8.261
  402LIG      C 5765   8.135   6.464   7.998
  402LIG    OT1 5766   8.210   6.496   7.888
  402LIG    OT2 5767   8.111   6.338   8.044
  403LIG      N 5768   9.696   4.977   7.728
  403LIG     H1 5769   9.781   4.930   7.706
  403LIG     H2 5770   9.618   4.917   7.709
  403LIG     H3 5771   9.688   5.061   7.674
  403LIG     CA 5772   9.695   5.013   7.876
  403LIG     HA 5773   9.704   4.930   7.931
  403LIG     CB 5774   9.814   5.103   7.905
  403LIG    HB1 5775   9.808   5.186   7.849
  403LIG    HB2 5776   9.898   5.055   7.883
  403LIG     CG 5777   9.816   5.142   8.050
  403LIG    OD1 5778   9.742   5.251   8.080
  403LIG    OD2 5779   9.881   5.080   8.134
  403LIG      C 5780   9.564   5.087   7.913
  403LIG    OT1 5781   9.473   5.106   7.812
  403LIG    OT2 5782   9.548   5.126   8.042
  404LIG      N 5783   0.123   2.810   6.610
  404LIG     H1 5784   0.146   2.854   6.524
  404LIG     H2 5785   0.124   2.877   6.684
  404LIG     H3 5786   0.189   2.737   6.629
  404LIG     CA 5787  -0.016   2.748   6.601
  404LIG     HA 5788  -0.083   2.820   6.581
  404LIG     CB 5789  -0.017   2.648   6.488
  404LIG    HB1 5790   0.051   2.576   6.506
  404LIG    HB2 5791   0.005   2.693   6.402
  404LIG     CG 5792  -0.152   2.584   6.477
  404LIG    OD1 5793  -0.171   2.476   6.556
  404LIG    OD2 5794  -0.239   2.626   6.400
  404LIG      C 5795  -0.052   2.679   6.735
  404LIG    OT1 5796   0.041   2.683   6.835
  404LIG    OT2 5797  -0.175   2.618   6.742
  405LIG      N 5798   9.295   6.230   5.443
  405LIG     H1 5799   9.353   6.151   5.462
  405LIG     H2 5800   9.304   6.256   5.347
  405LIG     H3 5801   9.322   6.306   5.502
  405LIG     CA 5802   9.150   6.194   5.472
  405LIG     HA 5803   9.122   6.118   5.414
  405LIG     CB 5804   9.137   6.153   5.617
  405LIG    HB1 5805   9.168   6.229   5.676
  405LIG    HB2 5806   9.195   6.074   5.635
  405LIG     CG 5807   8.995   6.119   5.650
  405LIG    OD1 5808   8.918   6.224   5.686
  405LIG    OD2 5809   8.953   6.004   5.645
  405LIG      C 5810   9.058   6.317   5.444
  405LIG    OT1 5811   9.119   6.431   5.399
  405LIG    OT2 5812   8.925   6.301   5.465
  406LIG      N 5813   0.275   3.842   9.198
  406LIG     H1 5814   0.265   3.861   9.296
  406LIG     H2 5815   0.243   3.920   9.145
  406LIG     H3 5816   0.222   3.760   9.175
  406LIG     CA 5817   0.422   3.816   9.166
  406LIG     HA 5818   0.475   3.897   9.190
  406LIG     CB 5819   0.470   3.699   9.248
  406LIG    HB1 5820   0.414   3.618   9.227
  406LIG    HB2 5821   0.460   3.719   9.345
  406LIG     CG 5822   0.614   3.669   9.218
  406LIG    OD1 5823   0.634   3.588   9.112
  406LIG    OD2 5824   0.706   3.715   9.286
  406LIG      C 5825   0.438   3.785   9.015
  406LIG    OT1 5826   0.325   3.786   8.938
  406LIG    OT2 5827   0.564   3.760   8.970
  407LIG      N 5828   3.424   8.619   1.057
  407LIG     H1 5829   3.480   8.695   1.090
  407LIG     H2 5830   3.483   8.540   1.038
  407LIG     H3 5831   3.377   8.647   0.973
  407LIG     CA 5832   3.321   8.582   1.162
  407LIG     HA 5833   3.368   8.555   1.246
  407LIG     CB 5834   3.234   8.702   1.190
  407LIG    HB1 5835   3.189   8.732   1.106
  407LIG    HB2 5836   3.291   8.777   1.224
  407LIG     CG 5837   3.130   8.669   1.293
  407LIG    OD1 5838   3.017   8.615   1.243
  407LIG    OD2 5839   3.147   8.691   1.413
  407LIG      C 5840   3.233   8.464   1.111
  407LIG    OT1 5841   3.261   8.415   0.986
  407LIG    OT2 5842   3.136   8.419   1.195
  408LIG      N 5843   3.329   0.265   5.833
  408LIG     H1 5844   3.302   0.265   5.736
  408LIG     H2 5845   3.363   0.175   5.858
  408LIG     H3 5846   3.251   0.290   5.890
  408LIG     CA 5847   3.440   0.368   5.853
  408LIG     HA 5848   3.518   0.344   5.796
  408LIG     CB 5849   3.388   0.504   5.812
  408LIG    HB1 5850   3.308   0.528   5.868
  408LIG    HB2 5851   3.362   0.503   5.716
  408LIG     CG 5852   3.494   0.608   5.832
  408LIG    OD1 5853   3.499   0.661   5.957
  408LIG    OD2 5854   3.570   0.643   5.742
  408LIG      C 5855   3.483   0.370   6.002
  408LIG    OT1 5856   3.419   0.284   6.087
  408LIG    OT2 5857   3.582   0.457   6.036
  409LIG      N 5858   0.398   4.789   6.784
  409LIG     H1 5859   0.347   4.865   6.743
  409LIG     H2 5860   0.403   4.713   6.719
  409LIG     H3 5861   0.353   4.759   6.868
  409LIG     CA 5862   0.539   4.835   6.818
  409LIG     HA 5863   0.585   4.866   6.734
  409LIG     CB 5864   0.531   4.951   6.915
  409LIG    HB1 5865   0.483   4.922   6.998
  409LIG    HB2 5866   0.480   5.026   6.873
  409LIG     CG 5867   0.668   4.999   6.951
  409LIG    OD1 5868   0.725   4.933   7.054
  409LIG    OD2 5869   0.724   5.091   6.892
  409LIG      C 5870   0.620   4.719   6.881
  409LIG    OT1 5871   0.555   4.599   6.896
  409LIG    OT2 5872   0.748   4.745   6.917
  410LIG      N 5873   5.373   9.952   0.764
  410LIG     H1 5874   5.422   9.936   0.679
  410LIG     H2 5875   5.435   9.991   0.832
  410LIG     H3 5876   5.336   9.865   0.798
  410LIG     CA 5877   5.258  10.048   0.739
  410LIG     HA 5878   5.294  10.135   0.704
  410LIG     CB 5879   5.166   9.988   0.635
  410LIG    HB1 5880   5.131   9.900   0.668
  410LIG    HB2 5881   5.216   9.973   0.550
  410LIG     CG 5882   5.051  10.080   0.608
  410LIG    OD1 5883   4.946  10.065   0.692
  410LIG    OD2 5884   5.051  10.162   0.516
  410LIG      C 5885   5.180  10.074   0.870
  410LIG    OT1 5886   5.224  10.010   0.983
  410LIG    OT2 5887   5.074  10.159   0.864
  411LIG      N 5888   5.258   7.678   0.375
  411LIG     H1 5889   5.214   7.703   0.462
  411LIG     H2 5890   5.248   7.752   0.309
  411LIG     H3 5891   5.215   7.595   0.340
  411LIG     CA 5892   5.405   7.651   0.400
  411LIG     HA 5893   5.449   7.733   0.436
  411LIG     CB 5894   5.419   7.539   0.501
  411LIG    HB1 5895   5.373   7.457   0.466
  411LIG    HB2 5896   5.376   7.566   0.587
  411LIG     CG 5897   5.563   7.509   0.526
  411LIG    OD1 5898   5.619   7.421   0.440
  411LIG    OD2 5899   5.626   7.560   0.619
  411LIG      C 5900   5.475   7.610   0.267
  411LIG    OT1 5901   5.396   7.605   0.155
  411LIG    OT2 5902   5.608   7.583   0.272
  412LIG      N 5903   1.498   3.604   3.309
  412LIG     H1 5904   1.573   3.547   3.275
  412LIG     H2 5905   1.499   3.605   3.410
  412LIG     H3 5906   1.411   3.567   3.277
  412LIG     CA 5907   1.514   3.746   3.258
  412LIG     HA 5908   1.601   3.783   3.289
  412LIG     CB 5909   1.514   3.743   3.106
  412LIG    HB1 5910   1.428   3.703   3.074
  412LIG    HB2 5911   1.589   3.687   3.073
  412LIG     CG 5912   1.528   3.882   3.051
  412LIG    OD1 5913   1.412   3.950   3.038
  412LIG    OD2 5914   1.637   3.929   3.020
  412LIG      C 5915   1.398   3.835   3.309
  412LIG    OT1 5916   1.304   3.775   3.389
  412LIG    OT2 5917   1.398   3.966   3.271
  413LIG      N 5918   4.256   1.587   9.123
  413LIG     H1 5919   4.157   1.580   9.137
  413LIG     H2 5920   4.303   1.513   9.171
  413LIG     H3 5921   4.288   1.675   9.158
  413LIG     CA 5922   4.288   1.579   8.974
  413LIG     HA 5923   4.255   1.492   8.938
  413LIG     CB 5924   4.216   1.691   8.903
  413LIG    HB1 5925   4.246   1.780   8.940
  413LIG    HB2 5926   4.118   1.683   8.916
  413LIG     CG 5927   4.246   1.687   8.756
  413LIG    OD1 5928   4.358   1.752   8.719
  413LIG    OD2 5929   4.172   1.630   8.675
  413LIG      C 5930   4.441   1.591   8.952
  413LIG    OT1 5931   4.519   1.606   9.062
  413LIG    OT2 5932   4.485   1.585   8.823
  414LIG      N 5933   8.171   3.079   1.447
  414LIG     H1 5934   8.096   3.033   1.493
  414LIG     H2 5935   8.251   3.080   1.507
  414LIG     H3 5936   8.144   3.173   1.426
  414LIG     CA 5937   8.205   3.007   1.318
  414LIG     HA 5938   8.231   2.913   1.339
  414LIG     CB 5939   8.082   3.005   1.229
  414LIG    HB1 5940   8.053   3.100   1.210
  414LIG    HB2 5941   8.008   2.958   1.276
  414LIG     CG 5942   8.112   2.936   1.100
  414LIG    OD1 5943   8.165   3.015   1.004
  414LIG    OD2 5944   8.089   2.816   1.083
  414LIG      C 5945   8.321   3.079   1.245
  414LIG    OT1 5946   8.373   3.191   1.306
  414LIG    OT2 5947   8.363   3.026   1.127
  415LIG      N 5948   9.075   6.333   6.004
  415LIG     H1 5949   9.103   6.282   5.923
  415LIG     H2 5950   9.078   6.273   6.084
  415LIG     H3 5951   8.982   6.368   5.991
  415LIG     CA 5952   9.169   6.451   6.025
  415LIG     HA 5953   9.262   6.417   6.038
  415LIG     CB 5954   9.165   6.540   5.903
  415LIG    HB1 5955   9.071   6.572   5.888
  415LIG    HB2 5956   9.194   6.489   5.823
  415LIG     CG 5957   9.255   6.658   5.922
  415LIG    OD1 5958   9.199   6.763   5.985
  415LIG    OD2 5959   9.371   6.659   5.881
  415LIG      C 5960   9.125   6.531   6.151
  415LIG    OT1 5961   9.015   6.486   6.219
  415LIG    OT2 5962   9.200   6.640   6.184
  416LIG      N 5963   7.834   7.210   2.828
  416LIG     H1 5964   7.919   7.159   2.813
  416LIG     H2 5965   7.817   7.269   2.749
  416LIG     H3 5966   7.843   7.266   2.910
  416LIG     CA 5967   7.718   7.114   2.845
  416LIG     HA 5968   7.709   7.058   2.764
  416LIG     CB 5969   7.746   7.025   2.964
  416LIG    HB1 5970   7.758   7.081   3.047
  416LIG    HB2 5971   7.830   6.973   2.949
  416LIG     CG 5972   7.633   6.929   2.986
  416LIG    OD1 5973   7.531   6.977   3.061
  416LIG    OD2 5974   7.632   6.816   2.938
  416LIG      C 5975   7.587   7.193   2.869
  416LIG    OT1 5976   7.595   7.330   2.869
  416LIG    OT2 5977   7.473   7.121   2.886
  417LIG      N 5978   3.964   9.077   1.621
  417LIG     H1 5979   3.944   9.164   1.667
  417LIG     H2 5980   3.967   9.093   1.522
  417LIG     H3 5981   3.892   9.011   1.642
  417LIG     CA 5982   4.098   9.024   1.668
  417LIG     HA 5983   4.169   9.090   1.648
  417LIG     CB 5984   4.092   9.003   1.818
  417LIG    HB1 5985   4.018   8.938   1.840
  417LIG    HB2 5986   4.073   9.089   1.863
  417LIG     CG 5987   4.222   8.948   1.868
  417LIG    OD1 5988   4.233   8.813   1.862
  417LIG    OD2 5989   4.311   9.020   1.913
  417LIG      C 5990   4.129   8.889   1.597
  417LIG    OT1 5991   4.037   8.843   1.508
  417LIG    OT2 5992   4.247   8.828   1.629
  418LIG      N 5993   9.191   7.639   3.826
  418LIG     H1 5994   9.268   7.703   3.825
  418LIG     H2 5995   9.113   7.681   3.779
  418LIG     H3 5996   9.166   7.619   3.921
  418LIG     CA 5997   9.229   7.510   3.756
  418LIG     HA 5998   9.255   7.530   3.662
  418LIG     CB 5999   9.348   7.449   3.827
  418LIG    HB1 6000   9.324   7.431   3.923
  418LIG    HB2 6001   9.425   7.513   3.825
  418LIG     CG 6002   9.389   7.321   3.762
  418LIG    OD1 6003   9.322   7.212   3.805
  418LIG    OD2 6004   9.476   7.316   3.675
  418LIG      C 6005   9.110   7.411   3.758
  418LIG    OT1 6006   8.995   7.452   3.819
  418LIG    OT2 6007   9.129   7.290   3.699
  419LIG      N 6008   0.629   2.160   3.362
  419LIG     H1 6009   0.604   2.079   3.415
  419LIG     H2 6010   0.605   2.145   3.266
  419LIG     H3 6011   0.727   2.177   3.371
  419LIG     CA 6012   0.553   2.281   3.415
  419LIG     HA 6013   0.455   2.264   3.407
  419LIG     CB 6014   0.588   2.301   3.561
  419LIG    HB1 6015   0.687   2.315   3.569
  419LIG    HB2 6016   0.563   2.220   3.613
  419LIG     CG 6017   0.517   2.420   3.616
  419LIG    OD1 6018   0.579   2.538   3.597
  419LIG    OD2 6019   0.409   2.411   3.675
  419LIG      C 6020   0.591   2.407   3.333
  419LIG    OT1 6021   0.682   2.391   3.232
  419LIG    OT2 6022   0.531   2.524   3.369
  420LIG      N 6023   6.597   5.522   9.167
  420LIG     H1 6024   6.533   5.452   9.199
  420LIG     H2 6025   6.612   5.510   9.069
  420LIG     H3 6026   6.684   5.512   9.216
  420LIG     CA 6027   6.540   5.660   9.193
  420LIG     HA 6028   6.453   5.670   9.145
  420LIG     CB 6029   6.517   5.676   9.342
  420LIG    HB1 6030   6.603   5.663   9.391
  420LIG    HB2 6031   6.452   5.607   9.373
  420LIG     CG 6032   6.462   5.812   9.372
  420LIG    OD1 6033   6.555   5.908   9.389
  420LIG    OD2 6034   6.341   5.834   9.381
  420LIG      C 6035   6.640   5.769   9.144
  420LIG    OT1 6036   6.757   5.725   9.087
  420LIG    OT2 6037   6.603   5.899   9.161
  421LIG      N 6038   4.715  10.019   7.938
  421LIG     H1 6039   4.724   9.920   7.946
  421LIG     H2 6040   4.742  10.048   7.846
  421LIG     H3 6041   4.773  10.063   8.006
  421LIG     CA 6042   4.570  10.058   7.963
  421LIG     HA 6043   4.511  10.013   7.896
  421LIG     CB 6044   4.530  10.012   8.101
  421LIG    HB1 6045   4.590  10.054   8.170
  421LIG    HB2 6046   4.539   9.913   8.108
  421LIG     CG 6047   4.388  10.050   8.130
  421LIG    OD1 6048   4.372  10.174   8.180
  421LIG    OD2 6049   4.294   9.973   8.110
  421LIG      C 6050   4.554  10.212   7.952
  421LIG    OT1 6051   4.666  10.285   7.923
  421LIG    OT2 6052   4.429  10.263   7.972
  422LIG      N 6053   9.475   8.593   3.774
  422LIG     H1 6054   9.518   8.674   3.734
  422LIG     H2 6055   9.415   8.550   3.706
  422LIG     H3 6056   9.422   8.619   3.854
  422LIG     CA 6057   9.583   8.494   3.816
  422LIG     HA 6058   9.637   8.468   3.736
  422LIG     CB 6059   9.674   8.561   3.916
  422LIG    HB1 6060   9.620   8.590   3.996
  422LIG    HB2 6061   9.717   8.641   3.875
  422LIG     CG 6062   9.781   8.466   3.961
  422LIG    OD1 6063   9.746   8.386   4.065
  422LIG    OD2 6064   9.892   8.462   3.909
  422LIG      C 6065   9.518   8.368   3.879
  422LIG    OT1 6066   9.381   8.365   3.886
  422LIG    OT2 6067   9.602   8.270   3.922
  423LIG      N 6068   0.160   8.180   7.487
  423LIG     H1 6069   0.070   8.136   7.475
  423LIG     H2 6070   0.214   8.167   7.404
  423LIG     H3 6071   0.207   8.138   7.565
  423LIG     CA 6072   0.140   8.328   7.513
  423LIG     HA 6073   0.092   8.369   7.436
  423LIG     CB 6074   0.056   8.345   7.638
  423LIG    HB1 6075   0.102   8.301   7.716
  423LIG    HB2 6076  -0.033   8.302   7.625
  423LIG     CG 6077   0.036   8.490   7.668
  423LIG    OD1 6078   0.134   8.547   7.742
  423LIG    OD2 6079  -0.063   8.552   7.630
  423LIG      C 6080   0.278   8.397   7.533
  423LIG    OT1 6081   0.389   8.318   7.523
  423LIG    OT2 6082   0.277   8.531   7.557
  424LIG      N 6083   8.601   8.184   9.549
  424LIG     H1 6084   8.541   8.238   9.609
  424LIG     H2 6085   8.675   8.145   9.604
  424LIG     H3 6086   8.638   8.243   9.478
  424LIG     CA 6087   8.520   8.072   9.485
  424LIG     HA 6088   8.482   8.014   9.556
  424LIG     CB 6089   8.407   8.133   9.405
  424LIG    HB1 6090   8.445   8.194   9.335
  424LIG    HB2 6091   8.348   8.186   9.465
  424LIG     CG 6092   8.327   8.025   9.339
  424LIG    OD1 6093   8.374   7.985   9.219
  424LIG    OD2 6094   8.225   7.978   9.390
  424LIG      C 6095   8.612   7.988   9.392
  424LIG    OT1 6096   8.743   8.025   9.383
  424LIG    OT2 6097   8.554   7.883   9.327
  425LIG      N 6098   0.534   3.300   6.369
  425LIG     H1 6099   0.486   3.373   6.320
  425LIG     H2 6100   0.480   3.216   6.363
  425LIG     H3 6101   0.546   3.326   6.465
  425LIG     CA 6102   0.670   3.277   6.305
  425LIG     HA 6103   0.658   3.252   6.209
  425LIG     CB 6104   0.750   3.405   6.313
  425LIG    HB1 6105   0.760   3.432   6.409
  425LIG    HB2 6106   0.702   3.477   6.263
  425LIG     CG 6107   0.885   3.386   6.252
  425LIG    OD1 6108   0.979   3.337   6.336
  425LIG    OD2 6109   0.909   3.413   6.134
  425LIG      C 6110   0.745   3.163   6.379
  425LIG    OT1 6111   0.680   3.105   6.485
  425LIG    OT2 6112   0.869   3.131   6.334
  426LIG      N 6113   5.580   7.985   9.366
  426LIG     H1 6114   5.638   8.020   9.292
  426LIG     H2 6115   5.593   8.041   9.447
  426LIG     H3 6116   5.606   7.890   9.386
  426LIG     CA 6117   5.435   7.988   9.323
  426LIG     HA 6118   5.409   8.082   9.302
  426LIG     CB 6119   5.418   7.904   9.198
  426LIG    HB1 6120   5.447   7.810   9.218
  426LIG    HB2 6121   5.475   7.941   9.125
  426LIG     CG 6122   5.275   7.904   9.154
  426LIG    OD1 6123   5.197   7.810   9.213
  426LIG    OD2 6124   5.232   7.983   9.070
  426LIG      C 6125   5.345   7.933   9.437
  426LIG    OT1 6126   5.407   7.892   9.551
  426LIG    OT2 6127   5.210   7.930   9.413
  427LIG      N 6128   0.620   3.780   5.026
  427LIG     H1 6129   0.521   3.789   5.022
  427LIG     H2 6130   0.652   3.802   5.119
  427LIG     H3 6131   0.662   3.843   4.960
  427LIG     CA 6132   0.660   3.638   4.991
  427LIG     HA 6133   0.618   3.575   5.056
  427LIG     CB 6134   0.610   3.606   4.852
  427LIG    HB1 6135   0.650   3.671   4.786
  427LIG    HB2 6136   0.511   3.614   4.849
  427LIG     CG 6137   0.649   3.467   4.813
  427LIG    OD1 6138   0.771   3.455   4.758
  427LIG    OD2 6139   0.573   3.371   4.829
  427LIG      C 6140   0.814   3.623   4.997
  427LIG    OT1 6141   0.887   3.734   5.030
  427LIG    OT2 6142   0.866   3.500   4.967
  428LIG      N 6143   8.565   5.686   3.885
  428LIG     H1 6144   8.650   5.712   3.932
  428LIG     H2 6145   8.528   5.602   3.926
  428LIG     H3 6146   8.584   5.670   3.788
  428LIG     CA 6147   8.464   5.798   3.898
  428LIG     HA 6148   8.445   5.815   3.995
  428LIG     CB 6149   8.522   5.924   3.837
  428LIG    HB1 6150   8.543   5.907   3.741
  428LIG    HB2 6151   8.605   5.949   3.885
  428LIG     CG 6152   8.424   6.037   3.847
  428LIG    OD1 6153   8.334   6.043   3.746
  428LIG    OD2 6154   8.425   6.117   3.940
  428LIG      C 6155   8.332   5.760   3.825
  428LIG    OT1 6156   8.328   5.637   3.764
  428LIG    OT2 6157   8.231   5.851   3.828
  429LIG      N 6158   4.097   7.964  10.000
  429LIG     H1 6159   4.005   7.963  10.039
  429LIG     H2 6160   4.164   7.981  10.072
  429LIG     H3 6161   4.103   8.037   9.931
  429LIG     CA 6162   4.126   7.831   9.933
  429LIG     HA 6163   4.120   7.758  10.001
  429LIG     CB 6164   4.023   7.806   9.825
  429LIG    HB1 6165   4.027   7.881   9.758
  429LIG    HB2 6166   3.932   7.804   9.865
  429LIG     CG 6167   4.049   7.676   9.756
  429LIG    OD1 6168   4.137   7.683   9.654
  429LIG    OD2 6169   3.994   7.571   9.790
  429LIG      C 6170   4.268   7.832   9.871
  429LIG    OT1 6171   4.342   7.947   9.885
  429LIG    OT2 6172   4.309   7.719   9.807
  430LIG      N 6173   9.358   4.032   1.091
  430LIG     H1 6174   9.357   3.991   1.182
  430LIG     H2 6175   9.445   4.010   1.045
  430LIG     H3 6176   9.348   4.132   1.099
  430LIG     CA 6177   9.242   3.977   1.009
  430LIG     HA 6178   9.252   3.878   1.002
  430LIG     CB 6179   9.113   4.009   1.080
  430LIG    HB1 6180   9.104   4.109   1.090
  430LIG    HB2 6181   9.112   3.968   1.170
  430LIG     CG 6182   8.996   3.958   1.002
  430LIG    OD1 6183   8.950   4.042   0.906
  430LIG    OD2 6184   8.945   3.848   1.023
  430LIG      C 6185   9.243   4.040   0.867
  430LIG    OT1 6186   9.341   4.131   0.839
  430LIG    OT2 6187   9.144   4.001   0.782
  431LIG      N 6188   1.710   6.032   6.276
  431LIG     H1 6189   1.708   6.062   6.181
  431LIG     H2 6190   1.684   5.935   6.280
  431LIG     H3 6191   1.647   6.087   6.330
  431LIG     CA 6192   1.851   6.048   6.331
  431LIG     HA 6193   1.914   5.994   6.277
  431LIG     CB 6194   1.890   6.194   6.322
  431LIG    HB1 6195   1.825   6.250   6.374
  431LIG    HB2 6196   1.889   6.223   6.227
  431LIG     CG 6197   2.028   6.214   6.377
  431LIG    OD1 6198   2.033   6.234   6.511
  431LIG    OD2 6199   2.128   6.214   6.306
  431LIG      C 6200   1.855   6.001   6.479
  431LIG    OT1 6201   1.738   5.955   6.534
  431LIG    OT2 6202   1.975   6.010   6.543
  432LIG      N 6203   0.411   0.572   5.263
  432LIG     H1 6204   0.344   0.556   5.335
  432LIG     H2 6205   0.402   0.666   5.229
  432LIG     H3 6206   0.397   0.507   5.189
  432LIG     CA 6207   0.551   0.554   5.320
  432LIG     HA 6208   0.566   0.618   5.394
  432LIG     CB 6209   0.564   0.412   5.372
  432LIG    HB1 6210   0.547   0.347   5.298
  432LIG    HB2 6211   0.497   0.397   5.445
  432LIG     CG 6212   0.702   0.389   5.427
  432LIG    OD1 6213   0.793   0.350   5.336
  432LIG    OD2 6214   0.728   0.404   5.547
  432LIG      C 6215   0.657   0.578   5.208
  432LIG    OT1 6216   0.610   0.611   5.084
  432LIG    OT2 6217   0.788   0.565   5.243
  433LIG      N 6218   0.234   3.326   8.747
  433LIG     H1 6219   0.141   3.344   8.715
  433LIG     H2 6220   0.234   3.314   8.846
  433LIG     H3 6221   0.293   3.404   8.723
  433LIG     CA 6222   0.288   3.201   8.680
  433LIG     HA 6223   0.229   3.123   8.703
  433LIG     CB 6224   0.287   3.221   8.531
  433LIG    HB1 6225   0.344   3.300   8.507
  433LIG    HB2 6226   0.194   3.237   8.499
  433LIG     CG 6227   0.340   3.099   8.461
  433LIG    OD1 6228   0.475   3.097   8.447
  433LIG    OD2 6229   0.267   3.010   8.419
  433LIG      C 6230   0.433   3.173   8.729
  433LIG    OT1 6231   0.487   3.260   8.819
  433LIG    OT2 6232   0.495   3.063   8.678
  434LIG      N 6233   3.214   0.263   4.826
  434LIG     H1 6234   3.152   0.322   4.877
  434LIG     H2 6235   3.257   0.198   4.889
  434LIG     H3 6236   3.284   0.319   4.782
  434LIG     CA 6237   3.136   0.187   4.720
  434LIG     HA 6238   3.065   0.132   4.763
  434LIG     CB 6239   3.071   0.287   4.627
  434LIG    HB1 6240   3.141   0.345   4.585
  434LIG    HB2 6241   3.008   0.345   4.678
  434LIG     CG 6242   2.994   0.217   4.519
  434LIG    OD1 6243   3.067   0.182   4.411
  434LIG    OD2 6244   2.874   0.192   4.529
  434LIG      C 6245   3.232   0.095   4.639
  434LIG    OT1 6246   3.364   0.096   4.675
  434LIG    OT2 6247   3.177   0.021   4.539
  435LIG      N 6248   1.002   0.372   9.720
  435LIG     H1 6249   1.099   0.384   9.696
  435LIG     H2 6250   0.995   0.315   9.802
  435LIG     H3 6251   0.955   0.327   9.644
  435LIG     CA 6252   0.939   0.507   9.746
  435LIG     HA 6253   0.986   0.553   9.821
  435LIG     CB 6254   0.952   0.592   9.621
  435LIG    HB1 6255   0.907   0.546   9.544
  435LIG    HB2 6256   1.048   0.605   9.599
  435LIG     CG 6257   0.889   0.726   9.642
  435LIG    OD1 6258   0.757   0.732   9.617
  435LIG    OD2 6259   0.954   0.825   9.679
  435LIG      C 6260   0.789   0.490   9.782
  435LIG    OT1 6261   0.740   0.362   9.785
  435LIG    OT2 6262   0.717   0.603   9.808
  436LIG      N 6263   8.758   9.724   5.339
  436LIG     H1 6264   8.841   9.748   5.289
  436LIG     H2 6265   8.689   9.795   5.323
  436LIG     H3 6266   8.778   9.718   5.437
  436LIG     CA 6267   8.706   9.590   5.290
  436LIG     HA 6268   8.686   9.595   5.192
  436LIG     CB 6269   8.812   9.485   5.314
  436LIG    HB1 6270   8.834   9.481   5.411
  436LIG    HB2 6271   8.894   9.509   5.263
  436LIG     CG 6272   8.764   9.351   5.268
  436LIG    OD1 6273   8.693   9.282   5.360
  436LIG    OD2 6274   8.788   9.307   5.156
  436LIG      C 6275   8.576   9.552   5.367
  436LIG    OT1 6276   8.531   9.641   5.461
  436LIG    OT2 6277   8.517   9.434   5.334
  437LIG      N 6278   0.199   1.747   7.561
  437LIG     H1 6279   0.233   1.654   7.551
  437LIG     H2 6280   0.152   1.775   7.476
  437LIG     H3 6281   0.275   1.809   7.579
  437LIG     CA 6282   0.101   1.753   7.677
  437LIG     HA 6283   0.025   1.691   7.659
  437LIG     CB 6284   0.172   1.709   7.803
  437LIG    HB1 6285   0.250   1.770   7.820
  437LIG    HB2 6286   0.205   1.616   7.793
  437LIG     CG 6287   0.079   1.715   7.920
  437LIG    OD1 6288   0.071   1.836   7.981
  437LIG    OD2 6289   0.015   1.617   7.959
  437LIG      C 6290   0.047   1.898   7.694
  437LIG    OT1 6291   0.093   1.992   7.606
  437LIG    OT2 6292  -0.043   1.919   7.794
  438LIG      N 6293   3.998   2.395   9.123
  438LIG     H1 6294   3.976   2.491   9.143
  438LIG     H2 6295   3.993   2.379   9.024
  438LIG     H3 6296   3.934   2.336   9.171
  438LIG     CA 6297   4.139   2.365   9.171
  438LIG     HA 6298   4.204   2.425   9.125
  438LIG     CB 6299   4.147   2.392   9.320
  438LIG    HB1 6300   4.080   2.334   9.368
  438LIG    HB2 6301   4.125   2.487   9.339
  438LIG     CG 6302   4.284   2.362   9.372
  438LIG    OD1 6303   4.305   2.233   9.406
  438LIG    OD2 6304   4.371   2.448   9.383
  438LIG      C 6305   4.175   2.217   9.142
  438LIG    OT1 6306   4.080   2.141   9.081
  438LIG    OT2 6307   4.299   2.175   9.180
  439LIG      N 6308   0.642   6.329   4.264
  439LIG     H1 6309   0.555   6.379   4.270
  439LIG     H2 6310   0.677   6.312   4.357
  439LIG     H3 6311   0.708   6.384   4.213
  439LIG     CA 6312   0.619   6.197   4.193
  439LIG     HA 6313   0.553   6.143   4.243
  439LIG     CB 6314   0.566   6.225   4.054
  439LIG    HB1 6315   0.631   6.282   4.004
  439LIG    HB2 6316   0.479   6.274   4.061
  439LIG     CG 6317   0.544   6.097   3.980
  439LIG    OD1 6318   0.652   6.049   3.915
  439LIG    OD2 6319   0.435   6.039   3.978
  439LIG      C 6320   0.753   6.119   4.183
  439LIG    OT1 6321   0.864   6.178   4.237
  439LIG    OT2 6322   0.750   5.997   4.121
  440LIG      N 6323   0.611   8.477   1.793
  440LIG     H1 6324   0.538   8.451   1.857
  440LIG     H2 6325   0.580   8.464   1.699
  440LIG     H3 6326   0.692   8.421   1.811
  440LIG     CA 6327   0.646   8.623   1.815
  440LIG     HA 6328   0.566   8.680   1.798
  440LIG     CB 6329   0.691   8.642   1.958
  440LIG    HB1 6330   0.771   8.584   1.976
  440LIG    HB2 6331   0.618   8.617   2.020
  440LIG     CG 6332   0.729   8.785   1.982
  440LIG    OD1 6333   0.856   8.817   1.951
  440LIG    OD2 6334   0.649   8.867   2.028
  440LIG      C 6335   0.760   8.665   1.718
  440LIG    OT1 6336   0.808   8.569   1.633
  440LIG    OT2 6337   0.803   8.794   1.725
  441LIG      N 6338   3.364   0.707   2.201
  441LIG     H1 6339   3.462   0.727   2.207
  441LIG     H2 6340   3.339   0.690   2.105
  441LIG     H3 6341   3.312   0.785   2.236
  441LIG     CA 6342   3.331   0.584   2.284
  441LIG     HA 6343   3.383   0.506   2.250
  441LIG     CB 6344   3.370   0.611   2.428
  441LIG    HB1 6345   3.320   0.691   2.462
  441LIG    HB2 6346   3.468   0.629   2.433
  441LIG     CG 6347   3.338   0.493   2.514
  441LIG    OD1 6348   3.211   0.490   2.562
  441LIG    OD2 6349   3.420   0.405   2.539
  441LIG      C 6350   3.179   0.554   2.276
  441LIG    OT1 6351   3.103   0.637   2.199
  441LIG    OT2 6352   3.133   0.446   2.346
  442LIG      N 6353   1.687   5.182   7.664
  442LIG     H1 6354   1.622   5.166   7.738
  442LIG     H2 6355   1.769   5.226   7.701
  442LIG     H3 6356   1.645   5.241   7.595
  442LIG     CA 6357   1.725   5.050   7.600
  442LIG     HA 6358   1.766   4.990   7.668
  442LIG     CB 6359   1.599   4.984   7.546
  442LIG    HB1 6360   1.556   5.045   7.479
  442LIG    HB2 6361   1.536   4.967   7.621
  442LIG     CG 6362   1.633   4.854   7.480
  442LIG    OD1 6363   1.668   4.863   7.350
  442LIG    OD2 6364   1.627   4.746   7.540
  442LIG      C 6365   1.825   5.074   7.484
  442LIG    OT1 6366   1.863   5.203   7.459
  442LIG    OT2 6367   1.869   4.964   7.416
  443LIG      N 6368   8.207   6.887   3.979
  443LIG     H1 6369   8.120   6.929   4.004
  443LIG     H2 6370   8.224   6.903   3.881
  443LIG     H3 6371   8.203   6.789   3.997
  443LIG     CA 6372   8.319   6.949   4.061
  443LIG     HA 6373   8.322   7.047   4.044
  443LIG     CB 6374   8.291   6.925   4.208
  443LIG    HB1 6375   8.284   6.827   4.225
  443LIG    HB2 6376   8.204   6.968   4.232
  443LIG     CG 6377   8.400   6.984   4.292
  443LIG    OD1 6378   8.506   6.902   4.312
  443LIG    OD2 6379   8.393   7.097   4.340
  443LIG      C 6380   8.455   6.884   4.022
  443LIG    OT1 6381   8.453   6.788   3.926
  443LIG    OT2 6382   8.565   6.929   4.088
  444LIG      N 6383   9.883   6.360   6.910
  444LIG     H1 6384   9.975   6.388   6.939
  444LIG     H2 6385   9.881   6.261   6.896
  444LIG     H3 6386   9.860   6.406   6.824
  444LIG     CA 6387   9.782   6.398   7.017
  444LIG     HA 6388   9.806   6.352   7.102
  444LIG     CB 6389   9.787   6.547   7.037
  444LIG    HB1 6390   9.766   6.594   6.951
  444LIG    HB2 6391   9.878   6.574   7.067
  444LIG     CG 6392   9.687   6.589   7.141
  444LIG    OD1 6393   9.563   6.612   7.094
  444LIG    OD2 6394   9.717   6.602   7.260
  444LIG      C 6395   9.640   6.355   6.972
  444LIG    OT1 6396   9.628   6.293   6.851
  444LIG    OT2 6397   9.537   6.383   7.058
  445LIG      N 6398   1.636   1.253   8.203
  445LIG     H1 6399   1.668   1.271   8.296
  445LIG     H2 6400   1.668   1.326   8.142
  445LIG     H3 6401   1.536   1.250   8.203
  445LIG     CA 6402   1.691   1.119   8.156
  445LIG     HA 6403   1.791   1.122   8.157
  445LIG     CB 6404   1.643   1.011   8.250
  445LIG    HB1 6405   1.543   1.009   8.251
  445LIG    HB2 6406   1.676   1.029   8.342
  445LIG     CG 6407   1.694   0.877   8.205
  445LIG    OD1 6408   1.616   0.815   8.114
  445LIG    OD2 6409   1.798   0.828   8.249
  445LIG      C 6410   1.641   1.090   8.012
  445LIG    OT1 6411   1.561   1.184   7.953
  445LIG    OT2 6412   1.682   0.973   7.955
  446LIG      N 6413   2.537   8.906   3.997
  446LIG     H1 6414   2.437   8.906   4.003
  446LIG     H2 6415   2.574   8.975   4.059
  446LIG     H3 6416   2.564   8.927   3.903
  446LIG     CA 6417   2.589   8.769   4.034
  446LIG     HA 6418   2.562   8.747   4.128
  446LIG     CB 6419   2.530   8.666   3.940
  446LIG    HB1 6420   2.555   8.689   3.846
  446LIG    HB2 6421   2.431   8.666   3.948
  446LIG     CG 6422   2.581   8.529   3.973
  446LIG    OD1 6423   2.699   8.497   3.915
  446LIG    OD2 6424   2.520   8.452   4.047
  446LIG      C 6425   2.744   8.767   4.024
  446LIG    OT1 6426   2.806   8.882   3.985
  446LIG    OT2 6427   2.807   8.650   4.055
  447LIG      N 6428   5.413   0.007   6.621
  447LIG     H1 6429   5.320   0.008   6.659
  447LIG     H2 6430   5.409   0.002   6.521
  447LIG     H3 6431   5.464  -0.071   6.657
  447LIG     CA 6432   5.485   0.135   6.662
  447LIG     HA 6433   5.434   0.214   6.627
  447LIG     CB 6434   5.489   0.143   6.813
  447LIG    HB1 6435   5.537   0.063   6.849
  447LIG    HB2 6436   5.396   0.144   6.849
  447LIG     CG 6437   5.560   0.267   6.857
  447LIG    OD1 6438   5.695   0.256   6.866
  447LIG    OD2 6439   5.501   0.372   6.883
  447LIG      C 6440   5.629   0.136   6.604
  447LIG    OT1 6441   5.667   0.027   6.531
  447LIG    OT2 6442   5.706   0.244   6.632
  448LIG      N 6443   1.485   2.373   5.228
  448LIG     H1 6444   1.580   2.354   5.255
  448LIG     H2 6445   1.450   2.296   5.175
  448LIG     H3 6446   1.483   2.456   5.172
  448LIG     CA 6447   1.400   2.394   5.352
  448LIG     HA 6448   1.402   2.311   5.408
  448LIG     CB 6449   1.455   2.509   5.432
  448LIG    HB1 6450   1.456   2.592   5.375
  448LIG    HB2 6451   1.549   2.489   5.459
  448LIG     CG 6452   1.373   2.533   5.554
  448LIG    OD1 6453   1.266   2.614   5.535
  448LIG    OD2 6454   1.400   2.484   5.663
  448LIG      C 6455   1.253   2.424   5.311
  448LIG    OT1 6456   1.225   2.427   5.177
  448LIG    OT2 6457   1.163   2.444   5.411
  449LIG      N 6458   8.208   9.206   2.441
  449LIG     H1 6459   8.210   9.184   2.344
  449LIG     H2 6460   8.223   9.304   2.455
  449LIG     H3 6461   8.279   9.154   2.488
  449LIG     CA 6462   8.073   9.168   2.499
  449LIG     HA 6463   8.001   9.219   2.452
  449LIG     CB 6464   8.050   9.020   2.477
  449LIG    HB1 6465   8.123   8.967   2.522
  449LIG    HB2 6466   8.051   8.999   2.380
  449LIG     CG 6467   7.918   8.978   2.534
  449LIG    OD1 6468   7.921   8.945   2.665
  449LIG    OD2 6469   7.816   8.973   2.466
  449LIG      C 6470   8.069   9.200   2.651
  449LIG    OT1 6471   8.181   9.254   2.706
  449LIG    OT2 6472   7.953   9.171   2.717
  450LIG      N 6473   4.083   0.399   3.814
  450LIG     H1 6474   4.035   0.354   3.889
  450LIG     H2 6475   4.042   0.370   3.727
  450LIG     H3 6476   4.180   0.375   3.816
  450LIG     CA 6477   4.069   0.550   3.828
  450LIG     HA 6478   3.972   0.575   3.826
  450LIG     CB 6479   4.129   0.592   3.960
  450LIG    HB1 6480   4.226   0.565   3.963
  450LIG    HB2 6481   4.081   0.548   4.035
  450LIG     CG 6482   4.119   0.741   3.977
  450LIG    OD1 6483   4.220   0.811   3.922
  450LIG    OD2 6484   4.025   0.794   4.036
  450LIG      C 6485   4.143   0.621   3.711
  450LIG    OT1 6486   4.205   0.541   3.619
  450LIG    OT2 6487   4.139   0.757   3.709
  451LIG      N 6488   3.576   9.162   8.856
  451LIG     H1 6489   3.583   9.110   8.941
  451LIG     H2 6490   3.567   9.100   8.778
  451LIG     H3 6491   3.657   9.219   8.845
  451LIG     CA 6492   3.453   9.252   8.862
  451LIG     HA 6493   3.371   9.196   8.873
  451LIG     CB 6494   3.466   9.345   8.980
  451LIG    HB1 6495   3.550   9.400   8.971
  451LIG    HB2 6496   3.472   9.292   9.064
  451LIG     CG 6497   3.348   9.436   8.989
  451LIG    OD1 6498   3.358   9.549   8.915
  451LIG    OD2 6499   3.249   9.411   9.058
  451LIG      C 6500   3.441   9.335   8.731
  451LIG    OT1 6501   3.538   9.315   8.636
  451LIG    OT2 6502   3.336   9.420   8.721
  452LIG      N 6503   4.789   8.194   1.620
  452LIG     H1 6504   4.692   8.177   1.604
  452LIG     H2 6505   4.822   8.131   1.691
  452LIG     H3 6506   4.801   8.289   1.651
  452LIG     CA 6507   4.867   8.173   1.492
  452LIG     HA 6508   4.854   8.079   1.460
  452LIG     CB 6509   4.814   8.267   1.386
  452LIG    HB1 6510   4.824   8.362   1.418
  452LIG    HB2 6511   4.718   8.249   1.369
  452LIG     CG 6512   4.890   8.250   1.258
  452LIG    OD1 6513   5.003   8.323   1.249
  452LIG    OD2 6514   4.851   8.176   1.168
  452LIG      C 6515   5.018   8.200   1.516
  452LIG    OT1 6516   5.055   8.236   1.643
  452LIG    OT2 6517   5.102   8.184   1.410
  453LIG      N 6518   1.771   7.821   0.976
  453LIG     H1 6519   1.759   7.838   0.878
  453LIG     H2 6520   1.723   7.738   1.002
  453LIG     H3 6521   1.734   7.899   1.028
  453LIG     CA 6522   1.919   7.807   1.008
  453LIG     HA 6523   1.957   7.730   0.957
  453LIG     CB 6524   1.991   7.933   0.967
  453LIG    HB1 6525   1.951   8.012   1.016
  453LIG    HB2 6526   1.979   7.948   0.869
  453LIG     CG 6527   2.137   7.923   0.998
  453LIG    OD1 6528   2.170   7.960   1.124
  453LIG    OD2 6529   2.219   7.886   0.916
  453LIG      C 6530   1.938   7.782   1.160
  453LIG    OT1 6531   1.825   7.778   1.238
  453LIG    OT2 6532   2.066   7.767   1.205
  454LIG      N 6533   6.978   9.721   9.844
  454LIG     H1 6534   6.935   9.783   9.778
  454LIG     H2 6535   6.980   9.763   9.934
  454LIG     H3 6536   7.072   9.700   9.814
  454LIG     CA 6537   6.899   9.591   9.851
  454LIG     HA 6538   6.806   9.611   9.880
  454LIG     CB 6539   6.895   9.528   9.713
  454LIG    HB1 6540   6.989   9.510   9.682
  454LIG    HB2 6541   6.852   9.591   9.649
  454LIG     CG 6542   6.819   9.400   9.716
  454LIG    OD1 6543   6.892   9.291   9.750
  454LIG    OD2 6544   6.699   9.393   9.689
  454LIG      C 6545   6.965   9.494   9.952
  454LIG    OT1 6546   7.078   9.537  10.015
  454LIG    OT2 6547   6.905   9.372   9.969
  455LIG      N 6548   9.310   3.437   3.630
  455LIG     H1 6549   9.405   3.463   3.646
  455LIG     H2 6550   9.263   3.509   3.578
  455LIG     H3 6551   9.264   3.424   3.718
  455LIG     CA 6552   9.304   3.307   3.552
  455LIG     HA 6553   9.351   3.319   3.464
  455LIG     CB 6554   9.376   3.199   3.631
  455LIG    HB1 6555   9.332   3.188   3.720
  455LIG    HB2 6556   9.471   3.225   3.645
  455LIG     CG 6557   9.372   3.069   3.557
  455LIG    OD1 6558   9.261   2.994   3.580
  455LIG    OD2 6559   9.463   3.032   3.483
  455LIG      C 6560   9.157   3.265   3.528
  455LIG    OT1 6561   9.060   3.347   3.578
  455LIG    OT2 6562   9.135   3.150   3.458
  456LIG      N 6563   6.380   0.585   5.398
  456LIG     H1 6564   6.325   0.669   5.398
  456LIG     H2 6565   6.369   0.537   5.311
  456LIG     H3 6566   6.352   0.526   5.474
  456LIG     CA 6567   6.527   0.623   5.417
  456LIG     HA 6568   6.556   0.682   5.343
  456LIG     CB 6569   6.542   0.697   5.548
  456LIG    HB1 6570   6.510   0.638   5.624
  456LIG    HB2 6571   6.487   0.780   5.546
  456LIG     CG 6572   6.685   0.734   5.571
  456LIG    OD1 6573   6.759   0.638   5.631
  456LIG    OD2 6574   6.731   0.843   5.539
  456LIG      C 6575   6.614   0.494   5.419
  456LIG    OT1 6576   6.550   0.375   5.403
  456LIG    OT2 6577   6.748   0.511   5.435
  457LIG      N 6578   5.398   9.826   4.545
  457LIG     H1 6579   5.347   9.741   4.528
  457LIG     H2 6580   5.480   9.806   4.599
  457LIG     H3 6581   5.340   9.890   4.595
  457LIG     CA 6582   5.438   9.888   4.412
  457LIG     HA 6583   5.496   9.824   4.362
  457LIG     CB 6584   5.314   9.917   4.332
  457LIG    HB1 6585   5.254   9.979   4.383
  457LIG    HB2 6586   5.264   9.832   4.314
  457LIG     CG 6587   5.349   9.980   4.201
  457LIG    OD1 6588   5.363  10.114   4.204
  457LIG    OD2 6589   5.364   9.914   4.098
  457LIG      C 6590   5.517  10.020   4.437
  457LIG    OT1 6591   5.536  10.057   4.568
  457LIG    OT2 6592   5.560  10.088   4.328
  458LIG      N 6593   8.420   3.046   2.042
  458LIG     H1 6594   8.443   3.139   2.013
  458LIG     H2 6595   8.402   3.044   2.140
  458LIG     H3 6596   8.496   2.985   2.020
  458LIG     CA 6597   8.296   2.998   1.967
  458LIG     HA 6598   8.220   3.059   1.988
  458LIG     CB 6599   8.324   3.003   1.819
  458LIG    HB1 6600   8.403   2.944   1.798
  458LIG    HB2 6601   8.346   3.096   1.791
  458LIG     CG 6602   8.205   2.955   1.742
  458LIG    OD1 6603   8.198   2.822   1.724
  458LIG    OD2 6604   8.120   3.033   1.697
  458LIG      C 6605   8.261   2.854   2.010
  458LIG    OT1 6606   8.341   2.794   2.103
  458LIG    OT2 6607   8.151   2.797   1.952
  459LIG      N 6608   6.053   1.114  10.010
  459LIG     H1 6609   6.046   1.016  10.028
  459LIG     H2 6610   6.117   1.155  10.075
  459LIG     H3 6611   5.963   1.156  10.020
  459LIG     CA 6612   6.102   1.137   9.868
  459LIG     HA 6613   6.192   1.094   9.857
  459LIG     CB 6614   6.005   1.073   9.771
  459LIG    HB1 6615   5.914   1.113   9.784
  459LIG    HB2 6616   5.999   0.975   9.789
  459LIG     CG 6617   6.050   1.094   9.630
  459LIG    OD1 6618   6.009   1.210   9.575
  459LIG    OD2 6619   6.118   1.012   9.569
  459LIG      C 6620   6.113   1.289   9.839
  459LIG    OT1 6621   6.078   1.374   9.940
  459LIG    OT2 6622   6.156   1.326   9.715
  460LIG      N 6623   4.132   6.521   0.276
  460LIG     H1 6624   4.056   6.467   0.312
  460LIG     H2 6625   4.138   6.510   0.177
  460LIG     H3 6626   4.218   6.490   0.318
  460LIG     CA 6627   4.111   6.668   0.309
  460LIG     HA 6628   4.025   6.699   0.267
  460LIG     CB 6629   4.101   6.683   0.459
  460LIG    HB1 6630   4.186   6.650   0.502
  460LIG    HB2 6631   4.024   6.630   0.493
  460LIG     CG 6632   4.081   6.827   0.495
  460LIG    OD1 6633   4.195   6.899   0.508
  460LIG    OD2 6634   3.969   6.876   0.514
  460LIG      C 6635   4.229   6.753   0.254
  460LIG    OT1 6636   4.329   6.686   0.189
  460LIG    OT2 6637   4.224   6.887   0.276
  461LIG      N 6638   9.894   0.162   2.049
  461LIG     H1 6639   9.969   0.110   2.007
  461LIG     H2 6640   9.927   0.208   2.131
  461LIG     H3 6641   9.819   0.099   2.072
  461LIG     CA 6642   9.843   0.265   1.950
  461LIG     HA 6643   9.917   0.327   1.925
  461LIG     CB 6644   9.794   0.194   1.825
  461LIG    HB1 6645   9.721   0.129   1.850
  461LIG    HB2 6646   9.869   0.143   1.784
  461LIG     CG 6647   9.741   0.292   1.726
  461LIG    OD1 6648   9.611   0.325   1.742
  461LIG    OD2 6649   9.811   0.339   1.635
  461LIG      C 6650   9.726   0.346   2.013
  461LIG    OT1 6651   9.690   0.313   2.141
  461LIG    OT2 6652   9.669   0.443   1.936
  462LIG      N 6653   2.415   9.452   3.259
  462LIG     H1 6654   2.498   9.478   3.210
  462LIG     H2 6655   2.409   9.352   3.266
  462LIG     H3 6656   2.335   9.487   3.211
  462LIG     CA 6657   2.418   9.511   3.399
  462LIG     HA 6658   2.499   9.477   3.448
  462LIG     CB 6659   2.428   9.662   3.387
  462LIG    HB1 6660   2.349   9.697   3.336
  462LIG    HB2 6661   2.511   9.687   3.339
  462LIG     CG 6662   2.430   9.725   3.523
  462LIG    OD1 6663   2.308   9.749   3.577
  462LIG    OD2 6664   2.535   9.753   3.581
  462LIG      C 6665   2.290   9.472   3.477
  462LIG    OT1 6666   2.198   9.395   3.411
  462LIG    OT2 6667   2.278   9.519   3.604
  463LIG      N 6668   2.294   7.957   7.980
  463LIG     H1 6669   2.327   8.043   8.018
  463LIG     H2 6670   2.195   7.949   7.996
  463LIG     H3 6671   2.341   7.881   8.023
  463LIG     CA 6672   2.321   7.953   7.830
  463LIG     HA 6673   2.274   8.030   7.786
  463LIG     CB 6674   2.470   7.967   7.807
  463LIG    HB1 6675   2.518   7.892   7.854
  463LIG    HB2 6676   2.502   8.053   7.845
  463LIG     CG 6677   2.501   7.962   7.661
  463LIG    OD1 6678   2.517   7.838   7.610
  463LIG    OD2 6679   2.512   8.064   7.593
  463LIG      C 6680   2.270   7.819   7.770
  463LIG    OT1 6681   2.212   7.731   7.856
  463LIG    OT2 6682   2.288   7.801   7.636
  464LIG      N 6683   8.449   0.831   1.585
  464LIG     H1 6684   8.373   0.894   1.569
  464LIG     H2 6685   8.472   0.830   1.682
  464LIG     H3 6686   8.528   0.859   1.531
  464LIG     CA 6687   8.407   0.691   1.542
  464LIG     HA 6688   8.327   0.662   1.595
  464LIG     CB 6689   8.371   0.693   1.395
  464LIG    HB1 6690   8.449   0.725   1.341
  464LIG    HB2 6691   8.295   0.756   1.380
  464LIG     CG 6692   8.330   0.557   1.349
  464LIG    OD1 6693   8.433   0.478   1.309
  464LIG    OD2 6694   8.213   0.520   1.346
  464LIG      C 6695   8.524   0.591   1.566
  464LIG    OT1 6696   8.639   0.642   1.618
  464LIG    OT2 6697   8.502   0.461   1.532
  465LIG      N 6698   0.248   8.795   3.910
  465LIG     H1 6699   0.300   8.875   3.940
  465LIG     H2 6700   0.245   8.792   3.810
  465LIG     H3 6701   0.155   8.800   3.946
  465LIG     CA 6702   0.315   8.668   3.962
  465LIG     HA 6703   0.408   8.663   3.927
  465LIG     CB 6704   0.319   8.675   4.113
  465LIG    HB1 6705   0.226   8.683   4.150
  465LIG    HB2 6706   0.372   8.754   4.142
  465LIG     CG 6707   0.383   8.551   4.169
  465LIG    OD1 6708   0.298   8.447   4.188
  465LIG    OD2 6709   0.503   8.545   4.195
  465LIG      C 6710   0.234   8.543   3.917
  465LIG    OT1 6711   0.122   8.565   3.841
  465LIG    OT2 6712   0.281   8.422   3.956
  466LIG      N 6713   8.573   3.685   3.221
  466LIG     H1 6714   8.629   3.746   3.164
  466LIG     H2 6715   8.491   3.733   3.251
  466LIG     H3 6716   8.627   3.655   3.300
  466LIG     CA 6717   8.533   3.563   3.139
  466LIG     HA 6718   8.481   3.592   3.060
  466LIG     CB 6719   8.659   3.492   3.092
  466LIG    HB1 6720   8.714   3.465   3.172
  466LIG    HB2 6721   8.712   3.554   3.035
  466LIG     CG 6722   8.623   3.370   3.013
  466LIG    OD1 6723   8.603   3.259   3.086
  466LIG    OD2 6724   8.614   3.372   2.890
  466LIG      C 6725   8.448   3.467   3.226
  466LIG    OT1 6726   8.423   3.505   3.355
  466LIG    OT2 6727   8.404   3.352   3.167
  467LIG      N 6728   2.177   0.638   1.281
  467LIG     H1 6729   2.223   0.582   1.212
  467LIG     H2 6730   2.120   0.580   1.339
  467LIG     H3 6731   2.120   0.707   1.236
  467LIG     CA 6732   2.281   0.708   1.368
  467LIG     HA 6733   2.338   0.640   1.412
  467LIG     CB 6734   2.367   0.795   1.279
  467LIG    HB1 6735   2.310   0.862   1.232
  467LIG    HB2 6736   2.413   0.739   1.211
  467LIG     CG 6737   2.470   0.867   1.361
  467LIG    OD1 6738   2.428   0.984   1.414
  467LIG    OD2 6739   2.584   0.823   1.378
  467LIG      C 6740   2.210   0.796   1.475
  467LIG    OT1 6741   2.073   0.796   1.475
  467LIG    OT2 6742   2.290   0.865   1.560
  468LIG      N 6743   2.195   2.921   4.599
  468LIG     H1 6744   2.160   2.840   4.646
  468LIG     H2 6745   2.149   2.931   4.511
  468LIG     H3 6746   2.293   2.913   4.586
  468LIG     CA 6747   2.166   3.044   4.685
  468LIG     HA 6748   2.068   3.053   4.699
  468LIG     CB 6749   2.234   3.027   4.819
  468LIG    HB1 6750   2.333   3.016   4.805
  468LIG    HB2 6751   2.198   2.946   4.865
  468LIG     CG 6752   2.209   3.147   4.905
  468LIG    OD1 6753   2.297   3.249   4.888
  468LIG    OD2 6754   2.117   3.152   4.986
  468LIG      C 6755   2.220   3.171   4.614
  468LIG    OT1 6756   2.281   3.154   4.493
  468LIG    OT2 6757   2.202   3.290   4.678
  469LIG      N 6758   9.184   6.753   6.781
  469LIG     H1 6759   9.166   6.689   6.707
  469LIG     H2 6760   9.161   6.711   6.869
  469LIG     H3 6761   9.129   6.836   6.768
  469LIG     CA 6762   9.331   6.791   6.781
  469LIG     HA 6763   9.387   6.709   6.792
  469LIG     CB 6764   9.365   6.855   6.647
  469LIG    HB1 6765   9.308   6.936   6.633
  469LIG    HB2 6766   9.347   6.790   6.574
  469LIG     CG 6767   9.509   6.895   6.644
  469LIG    OD1 6768   9.535   7.017   6.694
  469LIG    OD2 6769   9.597   6.822   6.597
  469LIG      C 6770   9.361   6.891   6.896
  469LIG    OT1 6771   9.256   6.928   6.975
  469LIG    OT2 6772   9.489   6.935   6.908
  470LIG      N 6773   0.130   5.950   1.766
  470LIG     H1 6774   0.194   5.997   1.827
  470LIG     H2 6775   0.125   5.853   1.791
  470LIG     H3 6776   0.162   5.959   1.671
  470LIG     CA 6777  -0.008   6.013   1.777
  470LIG     HA 6778  -0.040   6.006   1.871
  470LIG     CB 6779   0.002   6.159   1.740
  470LIG    HB1 6780   0.037   6.168   1.646
  470LIG    HB2 6781   0.065   6.206   1.802
  470LIG     CG 6782  -0.133   6.225   1.749
  470LIG    OD1 6783  -0.208   6.214   1.637
  470LIG    OD2 6784  -0.171   6.284   1.850
  470LIG      C 6785  -0.107   5.941   1.682
  470LIG    OT1 6786  -0.058   5.838   1.607
  470LIG    OT2 6787  -0.236   5.986   1.681
  471LIG      N 6788   4.454   1.894   0.328
  471LIG     H1 6789   4.441   1.892   0.229
  471LIG     H2 6790   4.533   1.838   0.353
  471LIG     H3 6791   4.372   1.859   0.374
  471LIG     CA 6792   4.478   2.038   0.372
  471LIG     HA 6793   4.559   2.074   0.326
  471LIG     CB 6794   4.358   2.122   0.333
  471LIG    HB1 6795   4.276   2.085   0.377
  471LIG    HB2 6796   4.346   2.119   0.234
  471LIG     CG 6797   4.378   2.264   0.377
  471LIG    OD1 6798   4.339   2.290   0.503
  471LIG    OD2 6799   4.424   2.350   0.302
  471LIG      C 6800   4.499   2.043   0.526
  471LIG    OT1 6801   4.492   1.925   0.594
  471LIG    OT2 6802   4.521   2.166   0.581
  472LIG      N 6803   2.114   1.294   8.385
  472LIG     H1 6804   2.180   1.360   8.422
  472LIG     H2 6805   2.113   1.299   8.285
  472LIG     H3 6806   2.023   1.314   8.421
  472LIG     CA 6807   2.154   1.153   8.428
  472LIG     HA 6808   2.245   1.133   8.393
  472LIG     CB 6809   2.157   1.146   8.579
  472LIG    HB1 6810   2.066   1.170   8.615
  472LIG    HB2 6811   2.223   1.212   8.614
  472LIG     CG 6812   2.194   1.009   8.624
  472LIG    OD1 6813   2.091   0.922   8.634
  472LIG    OD2 6814   2.310   0.977   8.651
  472LIG      C 6815   2.052   1.050   8.372
  472LIG    OT1 6816   1.948   1.099   8.297
  472LIG    OT2 6817   2.074   0.919   8.401
  473LIG      N 6818   8.462   1.360   0.583
  473LIG     H1 6819   8.384   1.297   0.570
  473LIG     H2 6820   8.530   1.343   0.512
  473LIG     H3 6821   8.502   1.344   0.673
  473LIG     CA 6822   8.413   1.503   0.574
  473LIG     HA 6823   8.372   1.519   0.485
  473LIG     CB 6824   8.309   1.527   0.682
  473LIG    HB1 6825   8.349   1.508   0.772
  473LIG    HB2 6826   8.232   1.465   0.667
  473LIG     CG 6827   8.260   1.668   0.677
  473LIG    OD1 6828   8.334   1.756   0.748
  473LIG    OD2 6829   8.159   1.701   0.615
  473LIG      C 6830   8.533   1.601   0.595
  473LIG    OT1 6831   8.656   1.545   0.616
  473LIG    OT2 6832   8.505   1.734   0.590
  474LIG      N 6833   9.909   6.588   1.212
  474LIG     H1 6834   9.986   6.617   1.155
  474LIG     H2 6835   9.919   6.629   1.303
  474LIG     H3 6836   9.909   6.489   1.219
  474LIG     CA 6837   9.779   6.635   1.149
  474LIG     HA 6838   9.780   6.734   1.141
  474LIG     CB 6839   9.767   6.574   1.011
  474LIG    HB1 6840   9.769   6.474   1.018
  474LIG    HB2 6841   9.844   6.604   0.955
  474LIG     CG 6842   9.639   6.617   0.946
  474LIG    OD1 6843   9.532   6.539   0.976
  474LIG    OD2 6844   9.632   6.714   0.871
  474LIG      C 6845   9.659   6.590   1.237
  474LIG    OT1 6846   9.688   6.520   1.351
  474LIG    OT2 6847   9.534   6.624   1.194
  475LIG      N 6848   4.837   0.098   1.019
  475LIG     H1 6849   4.921   0.048   0.998
  475LIG     H2 6850   4.765   0.035   1.047
  475LIG     H3 6851   4.807   0.149   0.938
  475LIG     CA 6852   4.865   0.197   1.131
  475LIG     HA 6853   4.895   0.147   1.212
  475LIG     CB 6854   4.974   0.292   1.088
  475LIG    HB1 6855   4.946   0.340   1.005
  475LIG    HB2 6856   5.057   0.240   1.068
  475LIG     CG 6857   5.004   0.391   1.195
  475LIG    OD1 6858   4.925   0.501   1.194
  475LIG    OD2 6859   5.093   0.375   1.278
  475LIG      C 6860   4.736   0.277   1.165
  475LIG    OT1 6861   4.624   0.248   1.092
  475LIG    OT2 6862   4.745   0.370   1.264
  476LIG      N 6863   4.541   1.308   3.954
  476LIG     H1 6864   4.516   1.230   4.012
  476LIG     H2 6865   4.583   1.380   4.010
  476LIG     H3 6866   4.460   1.343   3.908
  476LIG     CA 6867   4.641   1.263   3.849
  476LIG     HA 6868   4.723   1.226   3.894
  476LIG     CB 6869   4.578   1.153   3.765
  476LIG    HB1 6870   4.495   1.188   3.722
  476LIG    HB2 6871   4.555   1.076   3.823
  476LIG     CG 6872   4.674   1.107   3.659
  476LIG    OD1 6873   4.671   1.179   3.545
  476LIG    OD2 6874   4.748   1.010   3.675
  476LIG      C 6875   4.681   1.382   3.758
  476LIG    OT1 6876   4.623   1.503   3.785
  476LIG    OT2 6877   4.770   1.357   3.658
  477LIG      N 6878   1.501   9.008   4.992
  477LIG     H1 6879   1.549   9.052   4.917
  477LIG     H2 6880   1.416   9.058   5.011
  477LIG     H3 6881   1.559   9.008   5.074
  477LIG     CA 6882   1.468   8.865   4.955
  477LIG     HA 6883   1.410   8.864   4.873
  477LIG     CB 6884   1.596   8.791   4.925
  477LIG    HB1 6885   1.656   8.794   5.005
  477LIG    HB2 6886   1.644   8.835   4.849
  477LIG     CG 6887   1.568   8.649   4.889
  477LIG    OD1 6888   1.559   8.564   4.994
  477LIG    OD2 6889   1.555   8.612   4.772
  477LIG      C 6890   1.393   8.795   5.072
  477LIG    OT1 6891   1.370   8.869   5.184
  477LIG    OT2 6892   1.356   8.665   5.053
  478LIG      N 6893   5.192   1.212   1.870
  478LIG     H1 6894   5.137   1.130   1.855
  478LIG     H2 6895   5.233   1.209   1.961
  478LIG     H3 6896   5.133   1.293   1.863
  478LIG     CA 6897   5.302   1.221   1.765
  478LIG     HA 6898   5.360   1.140   1.772
  478LIG     CB 6899   5.238   1.225   1.628
  478LIG    HB1 6900   5.177   1.305   1.622
  478LIG    HB2 6901   5.185   1.142   1.613
  478LIG     CG 6902   5.344   1.235   1.522
  478LIG    OD1 6903   5.384   1.361   1.494
  478LIG    OD2 6904   5.389   1.136   1.465
  478LIG      C 6905   5.387   1.349   1.788
  478LIG    OT1 6906   5.352   1.429   1.893
  478LIG    OT2 6907   5.490   1.370   1.702
  479LIG      N 6908   8.289   8.561   2.539
  479LIG     H1 6909   8.357   8.582   2.469
  479LIG     H2 6910   8.211   8.624   2.529
  479LIG     H3 6911   8.330   8.572   2.630
  479LIG     CA 6912   8.241   8.418   2.523
  479LIG     HA 6913   8.201   8.406   2.433
  479LIG     CB 6914   8.360   8.325   2.537
  479LIG    HB1 6915   8.402   8.338   2.627
  479LIG    HB2 6916   8.427   8.345   2.466
  479LIG     CG 6917   8.316   8.182   2.523
  479LIG    OD1 6918   8.274   8.125   2.638
  479LIG    OD2 6919   8.320   8.122   2.416
  479LIG      C 6920   8.135   8.385   2.632
  479LIG    OT1 6921   8.103   8.485   2.720
  479LIG    OT2 6922   8.082   8.259   2.631
  480LIG      N 6923   0.933   8.701   7.966
  480LIG     H1 6924   0.848   8.711   7.914
  480LIG     H2 6925   1.011   8.728   7.909
  480LIG     H3 6926   0.944   8.605   7.994
  480LIG     CA 6927   0.927   8.788   8.090
  480LIG     HA 6928   0.916   8.883   8.063
  480LIG     CB 6929   0.809   8.746   8.174
  480LIG    HB1 6930   0.818   8.649   8.200
  480LIG    HB2 6931   0.725   8.757   8.122
  480LIG     CG 6932   0.801   8.829   8.299
  480LIG    OD1 6933   0.875   8.783   8.402
  480LIG    OD2 6934   0.731   8.930   8.306
  480LIG      C 6935   1.058   8.772   8.172
  480LIG    OT1 6936   1.153   8.687   8.122
  480LIG    OT2 6937   1.069   8.845   8.287
  481LIG      N 6938   6.794   7.416   0.255
  481LIG     H1 6939   6.789   7.500   0.201
  481LIG     H2 6940   6.846   7.433   0.338
  481LIG     H3 6941   6.838   7.345   0.201
  481LIG     CA 6942   6.653   7.371   0.291
  481LIG     HA 6943   6.608   7.443   0.344
  481LIG     CB 6944   6.575   7.348   0.164
  481LIG    HB1 6945   6.621   7.278   0.108
  481LIG    HB2 6946   6.570   7.432   0.111
  481LIG     CG 6947   6.436   7.302   0.196
  481LIG    OD1 6948   6.423   7.169   0.214
  481LIG    OD2 6949   6.341   7.380   0.204
  481LIG      C 6950   6.659   7.240   0.374
  481LIG    OT1 6951   6.783   7.189   0.401
  481LIG    OT2 6952   6.540   7.187   0.415
  482LIG      N 6953   9.105   5.553   3.734
  482LIG     H1 6954   9.180   5.596   3.683
  482LIG     H2 6955   9.037   5.622   3.759
  482LIG     H3 6956   9.142   5.511   3.817
  482LIG     CA 6957   9.040   5.446   3.649
  482LIG     HA 6958   9.003   5.487   3.566
  482LIG     CB 6959   9.144   5.343   3.611
  482LIG    HB1 6960   9.183   5.303   3.694
  482LIG    HB2 6961   9.217   5.387   3.559
  482LIG     CG 6962   9.083   5.235   3.528
  482LIG    OD1 6963   9.027   5.134   3.598
  482LIG    OD2 6964   9.084   5.237   3.405
  482LIG      C 6965   8.925   5.378   3.728
  482LIG    OT1 6966   8.902   5.423   3.855
  482LIG    OT2 6967   8.856   5.279   3.664
  483LIG      N 6968   8.919   2.147   5.842
  483LIG     H1 6969   8.908   2.068   5.903
  483LIG     H2 6970   8.885   2.229   5.888
  483LIG     H3 6971   8.867   2.131   5.758
  483LIG     CA 6972   9.065   2.165   5.807
  483LIG     HA 6973   9.118   2.181   5.891
  483LIG     CB 6974   9.116   2.040   5.740
  483LIG    HB1 6975   9.062   2.022   5.657
  483LIG    HB2 6976   9.106   1.962   5.802
  483LIG     CG 6977   9.260   2.055   5.703
  483LIG    OD1 6978   9.282   2.113   5.583
  483LIG    OD2 6979   9.352   2.016   5.776
  483LIG      C 6980   9.082   2.287   5.712
  483LIG    OT1 6981   8.969   2.355   5.677
  483LIG    OT2 6982   9.209   2.317   5.672
  484LIG      N 6983   6.386   2.249   9.830
  484LIG     H1 6984   6.462   2.194   9.795
  484LIG     H2 6985   6.373   2.231   9.927
  484LIG     H3 6986   6.302   2.226   9.780
  484LIG     CA 6987   6.417   2.397   9.810
  484LIG     HA 6988   6.500   2.420   9.858
  484LIG     CB 6989   6.437   2.423   9.662
  484LIG    HB1 6990   6.354   2.397   9.612
  484LIG    HB2 6991   6.513   2.368   9.628
  484LIG     CG 6992   6.466   2.568   9.638
  484LIG    OD1 6993   6.356   2.646   9.624
  484LIG    OD2 6994   6.581   2.612   9.630
  484LIG      C 6995   6.299   2.483   9.863
  484LIG    OT1 6996   6.192   2.417   9.917
  484LIG    OT2 6997   6.312   2.618   9.852
  485LIG      N 6998   0.418   8.759   4.945
  485LIG     H1 6999   0.374   8.840   4.983
  485LIG     H2 7000   0.487   8.786   4.878
  485LIG     H3 7001   0.349   8.702   4.900
  485LIG     CA 7002   0.483   8.678   5.056
  485LIG     HA 7003   0.552   8.735   5.102
  485LIG     CB 7004   0.378   8.638   5.156
  485LIG    HB1 7005   0.307   8.584   5.110
  485LIG    HB2 7006   0.335   8.720   5.195
  485LIG     CG 7007   0.438   8.558   5.267
  485LIG    OD1 7008   0.447   8.425   5.242
  485LIG    OD2 7009   0.476   8.608   5.372
  485LIG      C 7010   0.551   8.552   4.997
  485LIG    OT1 7011   0.542   8.533   4.862
  485LIG    OT2 7012   0.615   8.469   5.085
  486LIG      N 7013   3.443   8.062   7.365
  486LIG     H1 7014   3.539   8.034   7.373
  486LIG     H2 7015   3.415   8.054   7.269
  486LIG     H3 7016   3.433   8.156   7.396
  486LIG     CA 7017   3.356   7.971   7.450
  486LIG     HA 7018   3.366   7.877   7.420
  486LIG     CB 7019   3.401   7.983   7.594
  486LIG    HB1 7020   3.394   8.078   7.625
  486LIG    HB2 7021   3.496   7.954   7.602
  486LIG     CG 7022   3.317   7.896   7.683
  486LIG    OD1 7023   3.203   7.954   7.727
  486LIG    OD2 7024   3.349   7.781   7.713
  486LIG      C 7025   3.207   8.014   7.438
  486LIG    OT1 7026   3.179   8.120   7.357
  486LIG    OT2 7027   3.116   7.942   7.510
  487LIG      N 7028   4.955   8.437   9.442
  487LIG     H1 7029   5.054   8.441   9.429
  487LIG     H2 7030   4.910   8.470   9.359
  487LIG     H3 7031   4.930   8.495   9.520
  487LIG     CA 7032   4.912   8.294   9.471
  487LIG     HA 7033   4.938   8.236   9.394
  487LIG     CB 7034   4.983   8.246   9.596
  487LIG    HB1 7035   4.960   8.306   9.673
  487LIG    HB2 7036   5.081   8.249   9.582
  487LIG     CG 7037   4.942   8.106   9.628
  487LIG    OD1 7038   4.830   8.095   9.703
  487LIG    OD2 7039   5.006   8.008   9.590
  487LIG      C 7040   4.758   8.288   9.492
  487LIG    OT1 7041   4.689   8.406   9.481
  487LIG    OT2 7042   4.704   8.166   9.518
  488LIG      N 7043   8.509   1.565   7.103
  488LIG     H1 7044   8.523   1.516   7.016
  488LIG     H2 7045   8.411   1.577   7.119
  488LIG     H3 7046   8.554   1.654   7.099
  488LIG     CA 7047   8.570   1.484   7.216
  488LIG     HA 7048   8.526   1.394   7.221
  488LIG     CB 7049   8.717   1.465   7.190
  488LIG    HB1 7050   8.762   1.555   7.183
  488LIG    HB2 7051   8.730   1.416   7.104
  488LIG     CG 7052   8.781   1.387   7.301
  488LIG    OD1 7053   8.822   1.461   7.406
  488LIG    OD2 7054   8.795   1.265   7.296
  488LIG      C 7055   8.549   1.558   7.351
  488LIG    OT1 7056   8.484   1.678   7.347
  488LIG    OT2 7057   8.598   1.498   7.463
  489LIG      N 7058   1.768   3.648   1.317
  489LIG     H1 7059   1.803   3.566   1.272
  489LIG     H2 7060   1.690   3.684   1.266
  489LIG     H3 7061   1.840   3.717   1.322
  489LIG     CA 7062   1.724   3.612   1.459
  489LIG     HA 7063   1.652   3.543   1.454
  489LIG     CB 7064   1.842   3.556   1.534
  489LIG    HB1 7065   1.916   3.624   1.536
  489LIG    HB2 7066   1.876   3.474   1.488
  489LIG     CG 7067   1.803   3.521   1.674
  489LIG    OD1 7068   1.811   3.623   1.762
  489LIG    OD2 7069   1.768   3.408   1.707
  489LIG      C 7070   1.670   3.739   1.531
  489LIG    OT1 7071   1.671   3.856   1.460
  489LIG    OT2 7072   1.627   3.723   1.659
  490LIG      N 7073   2.158   1.192   9.824
  490LIG     H1 7074   2.251   1.196   9.787
  490LIG     H2 7075   2.127   1.096   9.824
  490LIG     H3 7076   2.097   1.247   9.767
  490LIG     CA 7077   2.157   1.246   9.965
  490LIG     HA 7078   2.219   1.192  10.022
  490LIG     CB 7079   2.205   1.389   9.963
  490LIG    HB1 7080   2.145   1.444   9.904
  490LIG    HB2 7081   2.298   1.393   9.927
  490LIG     CG 7082   2.204   1.447  10.101
  490LIG    OD1 7083   2.086   1.501  10.140
  490LIG    OD2 7084   2.304   1.447  10.174
  490LIG      C 7085   2.013   1.240  10.024
  490LIG    OT1 7086   1.915   1.188   9.943
  490LIG    OT2 7087   1.996   1.285  10.151
  491LIG      N 7088   1.747   5.938   1.556
  491LIG     H1 7089   1.782   6.005   1.491
  491LIG     H2 7090   1.738   5.849   1.511
  491LIG     H3 7091   1.658   5.967   1.590
  491LIG     CA 7092   1.843   5.926   1.673
  491LIG     HA 7093   1.933   5.897   1.640
  491LIG     CB 7094   1.857   6.061   1.740
  491LIG    HB1 7095   1.766   6.092   1.771
  491LIG    HB2 7096   1.892   6.127   1.674
  491LIG     CG 7097   1.950   6.053   1.857
  491LIG    OD1 7098   1.892   6.016   1.973
  491LIG    OD2 7099   2.070   6.079   1.847
  491LIG      C 7100   1.790   5.822   1.775
  491LIG    OT1 7101   1.671   5.760   1.746
  491LIG    OT2 7102   1.865   5.800   1.887
  492LIG      N 7103   1.099   2.136   1.316
  492LIG     H1 7104   1.149   2.123   1.402
  492LIG     H2 7105   1.053   2.051   1.291
  492LIG     H3 7106   1.164   2.162   1.244
  492LIG     CA 7107   0.997   2.247   1.334
  492LIG     HA 7108   0.933   2.222   1.406
  492LIG     CB 7109   1.069   2.374   1.373
  492LIG    HB1 7110   1.135   2.399   1.302
  492LIG    HB2 7111   1.117   2.360   1.459
  492LIG     CG 7112   0.971   2.487   1.390
  492LIG    OD1 7113   0.941   2.553   1.276
  492LIG    OD2 7114   0.922   2.516   1.499
  492LIG      C 7115   0.920   2.269   1.201
  492LIG    OT1 7116   0.954   2.190   1.095
  492LIG    OT2 7117   0.824   2.366   1.200
  493LIG      N 7118   0.090   9.162   6.996
  493LIG     H1 7119   0.189   9.150   6.985
  493LIG     H2 7120   0.064   9.253   6.964
  493LIG     H3 7121   0.065   9.152   7.092
  493LIG     CA 7122   0.017   9.057   6.913
  493LIG     HA 7123   0.042   9.066   6.817
  493LIG     CB 7124   0.058   8.920   6.962
  493LIG    HB1 7125   0.035   8.910   7.059
  493LIG    HB2 7126   0.156   8.908   6.950
  493LIG     CG 7127  -0.014   8.813   6.884
  493LIG    OD1 7128  -0.136   8.780   6.932
  493LIG    OD2 7129   0.036   8.760   6.785
  493LIG      C 7130  -0.137   9.075   6.929
  493LIG    OT1 7131  -0.180   9.177   7.010
  493LIG    OT2 7132  -0.217   8.988   6.861
  494LIG      N 7133   5.614   5.062   9.463
  494LIG     H1 7134   5.667   5.010   9.395
  494LIG     H2 7135   5.518   5.065   9.435
  494LIG     H3 7136   5.650   5.155   9.469
  494LIG     CA 7137   5.626   4.995   9.599
  494LIG     HA 7138   5.591   4.902   9.593
  494LIG     CB 7139   5.771   4.991   9.639
  494LIG    HB1 7140   5.808   5.084   9.642
  494LIG    HB2 7141   5.823   4.938   9.572
  494LIG     CG 7142   5.787   4.927   9.774
  494LIG    OD1 7143   5.774   5.012   9.878
  494LIG    OD2 7144   5.810   4.807   9.788
  494LIG      C 7145   5.544   5.076   9.704
  494LIG    OT1 7146   5.479   5.187   9.660
  494LIG    OT2 7147   5.545   5.028   9.832
  495LIG      N 7148   9.398   8.725   2.394
  495LIG     H1 7149   9.319   8.673   2.362
  495LIG     H2 7150   9.410   8.807   2.338
  495LIG     H3 7151   9.480   8.667   2.388
  495LIG     CA 7152   9.377   8.766   2.539
  495LIG     HA 7153   9.295   8.823   2.546
  495LIG     CB 7154   9.357   8.641   2.623
  495LIG    HB1 7155   9.438   8.582   2.615
  495LIG    HB2 7156   9.277   8.591   2.591
  495LIG     CG 7157   9.337   8.678   2.767
  495LIG    OD1 7158   9.451   8.693   2.838
  495LIG    OD2 7159   9.226   8.692   2.816
  495LIG      C 7160   9.500   8.845   2.590
  495LIG    OT1 7161   9.603   8.865   2.502
  495LIG    OT2 7162   9.496   8.889   2.719
  496LIG      N 7163   1.947   1.897   7.487
  496LIG     H1 7164   1.892   1.819   7.517
  496LIG     H2 7165   2.044   1.875   7.498
  496LIG     H3 7166   1.923   1.977   7.541
  496LIG     CA 7167   1.918   1.925   7.340
  496LIG     HA 7168   1.941   1.845   7.286
  496LIG     CB 7169   1.771   1.955   7.324
  496LIG    HB1 7170   1.746   2.035   7.381
  496LIG    HB2 7171   1.717   1.877   7.354
  496LIG     CG 7172   1.739   1.985   7.181
  496LIG    OD1 7173   1.756   2.114   7.145
  496LIG    OD2 7174   1.698   1.899   7.103
  496LIG      C 7175   2.002   2.046   7.292
  496LIG    OT1 7176   2.085   2.105   7.384
  496LIG    OT2 7177   1.988   2.084   7.162
  497LIG      N 7178   1.181   9.461   3.235
  497LIG     H1 7179   1.089   9.481   3.269
  497LIG     H2 7180   1.177   9.447   3.136
  497LIG     H3 7181   1.215   9.379   3.280
  497LIG     CA 7182   1.273   9.578   3.266
  497LIG     HA 7183   1.238   9.660   3.222
  497LIG     CB 7184   1.276   9.599   3.416
  497LIG    HB1 7185   1.308   9.516   3.462
  497LIG    HB2 7186   1.184   9.620   3.449
  497LIG     CG 7187   1.367   9.713   3.451
  497LIG    OD1 7188   1.497   9.679   3.466
  497LIG    OD2 7189   1.326   9.828   3.465
  497LIG      C 7190   1.416   9.547   3.215
  497LIG    OT1 7191   1.436   9.427   3.153
  497LIG    OT2 7192   1.511   9.643   3.235
  498LIG      N 7193   1.408   5.610   4.910
  498LIG     H1 7194   1.484   5.544   4.915
  498LIG     H2 7195   1.349   5.588   4.832
  498LIG     H3 7196   1.445   5.702   4.900
  498LIG     CA 7197   1.327   5.603   5.038
  498LIG     HA 7198   1.291   5.510   5.050
  498LIG     CB 7199   1.417   5.635   5.155
  498LIG    HB1 7200   1.456   5.727   5.144
  498LIG    HB2 7201   1.491   5.569   5.160
  498LIG     CG 7202   1.340   5.630   5.284
  498LIG    OD1 7203   1.277   5.745   5.316
  498LIG    OD2 7204   1.335   5.530   5.354
  498LIG      C 7205   1.210   5.704   5.033
  498LIG    OT1 7206   1.198   5.780   4.919
  498LIG    OT2 7207   1.127   5.710   5.141
  499LIG      N 7208   3.006   9.480   7.972
  499LIG     H1 7209   2.957   9.482   7.885
  499LIG     H2 7210   3.102   9.503   7.957
  499LIG     H3 7211   2.998   9.389   8.012
  499LIG     CA 7212   2.944   9.582   8.067
  499LIG     HA 7213   2.951   9.673   8.027
  499LIG     CB 7214   2.798   9.548   8.087
  499LIG    HB1 7215   2.790   9.455   8.125
  499LIG    HB2 7216   2.750   9.551   8.000
  499LIG     CG 7217   2.734   9.645   8.181
  499LIG    OD1 7218   2.747   9.614   8.312
  499LIG    OD2 7219   2.674   9.745   8.142
  499LIG      C 7220   3.018   9.579   8.203
  499LIG    OT1 7221   3.122   9.491   8.216
  499LIG    OT2 7222   2.975   9.665   8.299
  500LIG      N 7223   2.442   8.552   6.389
  500LIG     H1 7224   2.367   8.498   6.351
  500LIG     H2 7225   2.442   8.542   6.489
  500LIG     H3 7226   2.429   8.648   6.364
  500LIG     CA 7227   2.574   8.502   6.333
  500LIG     HA 7228   2.586   8.406   6.357
  500LIG     CB 7229   2.572   8.516   6.183
  500LIG    HB1 7230   2.557   8.612   6.158
  500LIG    HB2 7231   2.498   8.461   6.145
  500LIG     CG 7232   2.702   8.469   6.124
  500LIG    OD1 7233   2.798   8.563   6.118
  500LIG    OD2 7234   2.718   8.354   6.084
  500LIG      C 7235   2.691   8.586   6.392
  500LIG    OT1 7236   2.658   8.686   6.480
  500LIG    OT2 7237   2.817   8.554   6.351
  501LIG      N 7238   9.424   5.166   4.343
  501LIG     H1 7239   9.485   5.230   4.296
  501LIG     H2 7240   9.437   5.172   4.442
  501LIG     H3 7241   9.444   5.073   4.312
  501LIG     CA 7242   9.280   5.199   4.308
  501LIG     HA 7243   9.259   5.292   4.338
  501LIG     CB 7244   9.262   5.190   4.158
  501LIG    HB1 7245   9.285   5.097   4.127
  501LIG    HB2 7246   9.322   5.255   4.113
  501LIG     CG 7247   9.120   5.220   4.120
  501LIG    OD1 7248   9.036   5.115   4.124
  501LIG    OD2 7249   9.084   5.333   4.088
  501LIG      C 7250   9.184   5.099   4.379
  501LIG    OT1 7251   9.241   5.002   4.457
  501LIG    OT2 7252   9.050   5.116   4.358
  502LIG      N 7253   9.467   7.065   0.945
  502LIG     H1 7254   9.552   7.026   0.981
  502LIG     H2 7255   9.465   7.163   0.962
  502LIG     H3 7256   9.389   7.021   0.989
  502LIG     CA 7257   9.460   7.039   0.795
  502LIG     HA 7258   9.538   7.082   0.750
  502LIG     CB 7259   9.465   6.890   0.771
  502LIG    HB1 7260   9.388   6.846   0.818
  502LIG    HB2 7261   9.550   6.853   0.806
  502LIG     CG 7262   9.457   6.861   0.624
  502LIG    OD1 7263   9.331   6.852   0.575
  502LIG    OD2 7264   9.557   6.845   0.554
  502LIG      C 7265   9.328   7.098   0.738
  502LIG    OT1 7266   9.244   7.160   0.826
  502LIG    OT2 7267   9.307   7.083   0.604
  503LIG      N 7268   8.764   0.415   0.419
  503LIG     H1 7269   8.814   0.330   0.438
  503LIG     H2 7270   8.771   0.437   0.321
  503LIG     H3 7271   8.804   0.489   0.473
  503LIG     CA 7272   8.618   0.398   0.457
  503LIG     HA 7273   8.578   0.324   0.405
  503LIG     CB 7274   8.610   0.364   0.605
  503LIG    HB1 7275   8.653   0.437   0.659
  503LIG    HB2 7276   8.659   0.279   0.622
  503LIG     CG 7277   8.467   0.348   0.647
  503LIG    OD1 7278   8.406   0.463   0.683
  503LIG    OD2 7279   8.411   0.238   0.649
  503LIG      C 7280   8.540   0.529   0.429
  503LIG    OT1 7281   8.611   0.634   0.377
  503LIG    OT2 7282   8.407   0.530   0.459
  504LIG      N 7283   8.020   3.901   4.248
  504LIG     H1 7284   8.054   3.807   4.239
  504LIG     H2 7285   8.037   3.933   4.341
  504LIG     H3 7286   7.922   3.903   4.228
  504LIG     CA 7287   8.093   3.991   4.149
  504LIG     HA 7288   8.191   3.988   4.168
  504LIG     CB 7289   8.068   3.940   4.009
  504LIG    HB1 7290   7.970   3.939   3.990
  504LIG    HB2 7291   8.103   3.847   4.001
  504LIG     CG 7292   8.137   4.027   3.909
  504LIG    OD1 7293   8.066   4.134   3.868
  504LIG    OD2 7294   8.250   4.002   3.866
  504LIG      C 7295   8.041   4.136   4.162
  504LIG    OT1 7296   7.944   4.160   4.255
  504LIG    OT2 7297   8.097   4.230   4.080
  505LIG      N 7298   9.763   3.207   4.422
  505LIG     H1 7299   9.801   3.291   4.460
  505LIG     H2 7300   9.804   3.189   4.333
  505LIG     H3 7301   9.664   3.216   4.413
  505LIG     CA 7302   9.793   3.091   4.516
  505LIG     HA 7303   9.892   3.081   4.526
  505LIG     CB 7304   9.732   3.120   4.651
  505LIG    HB1 7305   9.633   3.132   4.642
  505LIG    HB2 7306   9.772   3.203   4.689
  505LIG     CG 7307   9.759   3.007   4.746
  505LIG    OD1 7308   9.669   2.906   4.741
  505LIG    OD2 7309   9.855   3.006   4.823
  505LIG      C 7310   9.734   2.959   4.458
  505LIG    OT1 7311   9.667   2.968   4.339
  505LIG    OT2 7312   9.753   2.846   4.531
  506LIG      N 7313   9.466   0.890   4.613
  506LIG     H1 7314   9.552   0.847   4.642
  506LIG     H2 7315   9.436   0.954   4.684
  506LIG     H3 7316   9.397   0.820   4.599
  506LIG     CA 7317   9.489   0.966   4.484
  506LIG     HA 7318   9.559   1.036   4.498
  506LIG     CB 7319   9.536   0.869   4.378
  506LIG    HB1 7320   9.468   0.797   4.365
  506LIG    HB2 7321   9.622   0.827   4.407
  506LIG     CG 7322   9.558   0.940   4.248
  506LIG    OD1 7323   9.448   0.951   4.170
  506LIG    OD2 7324   9.668   0.983   4.214
  506LIG      C 7325   9.357   1.034   4.438
  506LIG    OT1 7326   9.247   1.016   4.517
  506LIG    OT2 7327   9.361   1.106   4.322
  507LIG      N 7328   1.465   4.268   0.829
  507LIG     H1 7329   1.415   4.190   0.867
  507LIG     H2 7330   1.430   4.353   0.869
  507LIG     H3 7331   1.453   4.271   0.730
  507LIG     CA 7332   1.613   4.254   0.862
  507LIG     HA 7333   1.625   4.251   0.961
  507LIG     CB 7334   1.664   4.125   0.802
  507LIG    HB1 7335   1.649   4.126   0.702
  507LIG    HB2 7336   1.614   4.048   0.841
  507LIG     CG 7337   1.810   4.109   0.830
  507LIG    OD1 7338   1.892   4.168   0.741
  507LIG    OD2 7339   1.851   4.045   0.927
  507LIG      C 7340   1.691   4.375   0.803
  507LIG    OT1 7341   1.619   4.469   0.736
  507LIG    OT2 7342   1.826   4.377   0.824
  508LIG      N 7343   2.110   2.288   6.664
  508LIG     H1 7344   2.094   2.315   6.759
  508LIG     H2 7345   2.140   2.369   6.612
  508LIG     H3 7346   2.026   2.251   6.624
  508LIG     CA 7347   2.219   2.182   6.659
  508LIG     HA 7348   2.303   2.219   6.699
  508LIG     CB 7349   2.174   2.062   6.739
  508LIG    HB1 7350   2.088   2.027   6.701
  508LIG    HB2 7351   2.159   2.089   6.834
  508LIG     CG 7352   2.278   1.955   6.735
  508LIG    OD1 7353   2.269   1.871   6.629
  508LIG    OD2 7354   2.364   1.943   6.822
  508LIG      C 7355   2.245   2.141   6.511
  508LIG    OT1 7356   2.171   2.202   6.415
  508LIG    OT2 7357   2.341   2.046   6.490
  509LIG      N 7358   6.520   1.551   8.192
  509LIG     H1 7359   6.541   1.630   8.135
  509LIG     H2 7360   6.542   1.572   8.288
  509LIG     H3 7361   6.574   1.473   8.162
  509LIG     CA 7362   6.372   1.517   8.180
  509LIG     HA 7363   6.318   1.595   8.209
  509LIG     CB 7364   6.341   1.487   8.035
  509LIG    HB1 7365   6.398   1.410   8.004
  509LIG    HB2 7366   6.362   1.567   7.979
  509LIG     CG 7367   6.197   1.452   8.019
  509LIG    OD1 7368   6.167   1.321   8.040
  509LIG    OD2 7369   6.111   1.535   7.989
  509LIG      C 7370   6.339   1.394   8.268
  509LIG    OT1 7371   6.441   1.338   8.340
  509LIG    OT2 7372   6.209   1.351   8.268
  510LIG      N 7373   2.341   0.585   1.822
  510LIG     H1 7374   2.344   0.485   1.826
  510LIG     H2 7375   2.310   0.620   1.910
  510LIG     H3 7376   2.279   0.614   1.750
  510LIG     CA 7377   2.480   0.638   1.793
  510LIG     HA 7378   2.543   0.609   1.864
  510LIG     CB 7379   2.527   0.582   1.660
  510LIG    HB1 7380   2.463   0.609   1.588
  510LIG    HB2 7381   2.530   0.483   1.665
  510LIG     CG 7382   2.664   0.634   1.627
  510LIG    OD1 7383   2.665   0.753   1.563
  510LIG    OD2 7384   2.766   0.572   1.655
  510LIG      C 7385   2.477   0.793   1.786
  510LIG    OT1 7386   2.356   0.854   1.807
  510LIG    OT2 7387   2.595   0.857   1.760
  511LIG      N 7388   1.280   3.286   4.538
  511LIG     H1 7389   1.297   3.370   4.485
  511LIG     H2 7390   1.357   3.224   4.527
  511LIG     H3 7391   1.196   3.242   4.506
  511LIG     CA 7392   1.265   3.322   4.685
  511LIG     HA 7393   1.348   3.366   4.717
  511LIG     CB 7394   1.149   3.418   4.701
  511LIG    HB1 7395   1.065   3.375   4.666
  511LIG    HB2 7396   1.166   3.501   4.648
  511LIG     CG 7397   1.130   3.454   4.845
  511LIG    OD1 7398   1.052   3.368   4.915
  511LIG    OD2 7399   1.180   3.554   4.895
  511LIG      C 7400   1.239   3.193   4.768
  511LIG    OT1 7401   1.234   3.075   4.700
  511LIG    OT2 7402   1.223   3.209   4.903
  512LIG      N 7403   3.367   1.643   3.061
  512LIG     H1 7404   3.420   1.560   3.079
  512LIG     H2 7405   3.326   1.676   3.146
  512LIG     H3 7406   3.295   1.623   2.995
  512LIG     CA 7407   3.459   1.750   3.004
  512LIG     HA 7408   3.531   1.770   3.069
  512LIG     CB 7409   3.521   1.698   2.876
  512LIG    HB1 7410   3.448   1.675   2.810
  512LIG    HB2 7411   3.574   1.616   2.895
  512LIG     CG 7412   3.611   1.802   2.816
  512LIG    OD1 7413   3.549   1.891   2.735
  512LIG    OD2 7414   3.732   1.805   2.838
  512LIG      C 7415   3.378   1.879   2.975
  512LIG    OT1 7416   3.244   1.877   3.003
  512LIG    OT2 7417   3.446   1.985   2.923
  513LIG      N 7418   5.821   8.997   4.982
  513LIG     H1 7419   5.747   9.058   5.013
  513LIG     H2 7420   5.824   8.997   4.882
  513LIG     H3 7421   5.803   8.904   5.015
  513LIG     CA 7422   5.954   9.046   5.037
  513LIG     HA 7423   5.971   9.138   5.005
  513LIG     CB 7424   5.947   9.046   5.188
  513LIG    HB1 7425   5.926   8.953   5.221
  513LIG    HB2 7426   5.874   9.107   5.218
  513LIG     CG 7427   6.077   9.092   5.247
  513LIG    OD1 7428   6.169   8.995   5.264
  513LIG    OD2 7429   6.097   9.209   5.277
  513LIG      C 7430   6.068   8.952   4.990
  513LIG    OT1 7431   6.034   8.846   4.910
  513LIG    OT2 7432   6.194   8.982   5.032
  514LIG      N 7433   6.581   8.989   0.408
  514LIG     H1 7434   6.626   8.908   0.372
  514LIG     H2 7435   6.602   8.999   0.506
  514LIG     H3 7436   6.482   8.980   0.396
  514LIG     CA 7437   6.629   9.112   0.333
  514LIG     HA 7438   6.728   9.121   0.344
  514LIG     CB 7439   6.597   9.096   0.186
  514LIG    HB1 7440   6.498   9.084   0.174
  514LIG    HB2 7441   6.644   9.015   0.151
  514LIG     CG 7442   6.642   9.216   0.109
  514LIG    OD1 7443   6.552   9.317   0.104
  514LIG    OD2 7444   6.752   9.222   0.054
  514LIG      C 7445   6.559   9.239   0.388
  514LIG    OT1 7446   6.469   9.221   0.490
  514LIG    OT2 7447   6.591   9.358   0.331
  515LIG      N 7448   8.326   4.443   6.578
  515LIG     H1 7449   8.385   4.456   6.657
  515LIG     H2 7450   8.264   4.366   6.594
  515LIG     H3 7451   8.382   4.425   6.497
  515LIG     CA 7452   8.244   4.569   6.554
  515LIG     HA 7453   8.188   4.588   6.634
  515LIG     CB 7454   8.338   4.685   6.531
  515LIG    HB1 7455   8.396   4.666   6.452
  515LIG    HB2 7456   8.395   4.698   6.611
  515LIG     CG 7457   8.260   4.811   6.506
  515LIG    OD1 7458   8.225   4.830   6.377
  515LIG    OD2 7459   8.233   4.890   6.595
  515LIG      C 7460   8.152   4.550   6.430
  515LIG    OT1 7461   8.159   4.430   6.365
  515LIG    OT2 7462   8.072   4.654   6.396
  516LIG      N 7463   8.159   3.827   1.503
  516LIG     H1 7464   8.235   3.824   1.568
  516LIG     H2 7465   8.190   3.796   1.413
  516LIG     H3 7466   8.124   3.921   1.497
  516LIG     CA 7467   8.047   3.736   1.552
  516LIG     HA 7468   8.081   3.643   1.559
  516LIG     CB 7469   8.001   3.783   1.688
  516LIG    HB1 7470   7.970   3.878   1.682
  516LIG    HB2 7471   8.078   3.779   1.752
  516LIG     CG 7472   7.890   3.697   1.739
  516LIG    OD1 7473   7.767   3.734   1.699
  516LIG    OD2 7474   7.910   3.600   1.812
  516LIG      C 7475   7.928   3.741   1.452
  516LIG    OT1 7476   7.941   3.821   1.342
  516LIG    OT2 7477   7.819   3.664   1.482
  517LIG      N 7478   8.542   7.136   4.685
  517LIG     H1 7479   8.607   7.077   4.732
  517LIG     H2 7480   8.553   7.125   4.586
  517LIG     H3 7481   8.558   7.232   4.710
  517LIG     CA 7482   8.400   7.098   4.724
  517LIG     HA 7483   8.384   7.003   4.700
  517LIG     CB 7484   8.385   7.114   4.874
  517LIG    HB1 7485   8.405   7.210   4.900
  517LIG    HB2 7486   8.450   7.055   4.921
  517LIG     CG 7487   8.246   7.079   4.917
  517LIG    OD1 7488   8.157   7.180   4.909
  517LIG    OD2 7489   8.216   6.966   4.956
  517LIG      C 7490   8.298   7.189   4.651
  517LIG    OT1 7491   8.349   7.284   4.566
  517LIG    OT2 7492   8.166   7.167   4.676
  518LIG      N 7493   3.796   9.530   9.092
  518LIG     H1 7494   3.757   9.613   9.130
  518LIG     H2 7495   3.776   9.525   8.994
  518LIG     H3 7496   3.757   9.450   9.138
  518LIG     CA 7497   3.947   9.531   9.112
  518LIG     HA 7498   3.986   9.610   9.067
  518LIG     CB 7499   3.976   9.539   9.260
  518LIG    HB1 7500   3.935   9.460   9.307
  518LIG    HB2 7501   3.937   9.622   9.298
  518LIG     CG 7502   4.124   9.538   9.285
  518LIG    OD1 7503   4.180   9.415   9.293
  518LIG    OD2 7504   4.189   9.642   9.297
  518LIG      C 7505   4.009   9.401   9.053
  518LIG    OT1 7506   3.924   9.312   8.995
  518LIG    OT2 7507   4.144   9.387   9.064
  519LIG      N 7508   2.606   1.868   8.673
  519LIG     H1 7509   2.634   1.789   8.728
  519LIG     H2 7510   2.613   1.951   8.728
  519LIG     H3 7511   2.512   1.855   8.642
  519LIG     CA 7512   2.697   1.879   8.551
  519LIG     HA 7513   2.791   1.891   8.581
  519LIG     CB 7514   2.686   1.752   8.471
  519LIG    HB1 7515   2.591   1.738   8.442
  519LIG    HB2 7516   2.715   1.674   8.526
  519LIG     CG 7517   2.773   1.760   8.349
  519LIG    OD1 7518   2.715   1.818   8.241
  519LIG    OD2 7519   2.888   1.715   8.347
  519LIG      C 7520   2.654   2.001   8.465
  519LIG    OT1 7521   2.548   2.075   8.508
  519LIG    OT2 7522   2.726   2.024   8.351
  520LIG      N 7523   9.169   7.582   2.138
  520LIG     H1 7524   9.207   7.516   2.203
  520LIG     H2 7525   9.158   7.538   2.049
  520LIG     H3 7526   9.231   7.660   2.129
  520LIG     CA 7527   9.034   7.630   2.188
  520LIG     HA 7528   8.972   7.553   2.198
  520LIG     CB 7529   9.053   7.696   2.323
  520LIG    HB1 7530   9.117   7.772   2.315
  520LIG    HB2 7531   9.090   7.629   2.388
  520LIG     CG 7532   8.922   7.746   2.375
  520LIG    OD1 7533   8.889   7.871   2.334
  520LIG    OD2 7534   8.850   7.680   2.451
  520LIG      C 7535   8.974   7.733   2.088
  520LIG    OT1 7536   9.048   7.762   1.976
  520LIG    OT2 7537   8.853   7.786   2.119
  521LIG      N 7538   7.240   8.301   9.637
  521LIG     H1 7539   7.244   8.208   9.673
  521LIG     H2 7540   7.259   8.299   9.538
  521LIG     H3 7541   7.307   8.359   9.683
  521LIG     CA 7542   7.101   8.359   9.659
  521LIG     HA 7543   7.033   8.302   9.614
  521LIG     CB 7544   7.072   8.360   9.808
  521LIG    HB1 7545   7.141   8.415   9.855
  521LIG    HB2 7546   7.076   8.267   9.843
  521LIG     CG 7547   6.936   8.417   9.835
  521LIG    OD1 7548   6.933   8.552   9.846
  521LIG    OD2 7549   6.836   8.347   9.846
  521LIG      C 7550   7.094   8.503   9.603
  521LIG    OT1 7551   7.207   8.554   9.545
  521LIG    OT2 7552   6.975   8.569   9.616
  522LIG      N 7553   5.800   3.587   0.361
  522LIG     H1 7554   5.810   3.656   0.289
  522LIG     H2 7555   5.777   3.632   0.447
  522LIG     H3 7556   5.887   3.538   0.371
  522LIG     CA 7557   5.691   3.489   0.323
  522LIG     HA 7558   5.605   3.538   0.312
  522LIG     CB 7559   5.728   3.422   0.192
  522LIG    HB1 7560   5.816   3.375   0.202
  522LIG    HB2 7561   5.736   3.491   0.121
  522LIG     CG 7562   5.622   3.323   0.153
  522LIG    OD1 7563   5.638   3.200   0.205
  522LIG    OD2 7564   5.530   3.352   0.077
  522LIG      C 7565   5.675   3.381   0.434
  522LIG    OT1 7566   5.758   3.392   0.543
  522LIG    OT2 7567   5.581   3.285   0.415
  523LIG      N 7568   2.087   5.614   9.607
  523LIG     H1 7569   2.005   5.611   9.664
  523LIG     H2 7570   2.103   5.523   9.568
  523LIG     H3 7571   2.166   5.641   9.662
  523LIG     CA 7572   2.068   5.715   9.495
  523LIG     HA 7573   1.989   5.688   9.440
  523LIG     CB 7574   2.043   5.851   9.556
  523LIG    HB1 7575   2.121   5.877   9.613
  523LIG    HB2 7576   1.960   5.848   9.612
  523LIG     CG 7577   2.025   5.953   9.448
  523LIG    OD1 7578   2.139   6.009   9.403
  523LIG    OD2 7579   1.914   5.985   9.405
  523LIG      C 7580   2.194   5.719   9.405
  523LIG    OT1 7581   2.298   5.636   9.439
  523LIG    OT2 7582   2.193   5.805   9.300
  524LIG      N 7583   8.646   3.019   9.948
  524LIG     H1 7584   8.645   3.119   9.957
  524LIG     H2 7585   8.619   2.977  10.034
  524LIG     H3 7586   8.739   2.990   9.923
  524LIG     CA 7587   8.550   2.977   9.838
  524LIG     HA 7588   8.457   3.007   9.862
  524LIG     CB 7589   8.591   3.043   9.709
  524LIG    HB1 7590   8.684   3.016   9.685
  524LIG    HB2 7591   8.588   3.142   9.719
  524LIG     CG 7592   8.498   3.003   9.598
  524LIG    OD1 7593   8.532   2.888   9.535
  524LIG    OD2 7594   8.400   3.070   9.566
  524LIG      C 7595   8.552   2.823   9.822
  524LIG    OT1 7596   8.635   2.752   9.904
  524LIG    OT2 7597   8.470   2.769   9.727
  525LIG      N 7598   4.568   8.117   6.887
  525LIG     H1 7599   4.562   8.202   6.940
  525LIG     H2 7600   4.642   8.125   6.820
  525LIG     H3 7601   4.481   8.102   6.839
  525LIG     CA 7602   4.595   8.000   6.980
  525LIG     HA 7603   4.681   8.016   7.028
  525LIG     CB 7604   4.483   7.992   7.081
  525LIG    HB1 7605   4.395   7.979   7.033
  525LIG    HB2 7606   4.478   8.076   7.134
  525LIG     CG 7607   4.505   7.876   7.174
  525LIG    OD1 7608   4.458   7.758   7.130
  525LIG    OD2 7609   4.562   7.889   7.283
  525LIG      C 7610   4.603   7.869   6.899
  525LIG    OT1 7611   4.586   7.877   6.763
  525LIG    OT2 7612   4.627   7.754   6.969
  526LIG      N 7613   5.937   8.735   8.254
  526LIG     H1 7614   6.000   8.658   8.263
  526LIG     H2 7615   5.876   8.738   8.333
  526LIG     H3 7616   5.884   8.724   8.170
  526LIG     CA 7617   6.016   8.865   8.246
  526LIG     HA 7618   6.070   8.876   8.329
  526LIG     CB 7619   6.109   8.859   8.127
  526LIG    HB1 7620   6.055   8.845   8.043
  526LIG    HB2 7621   6.172   8.783   8.138
  526LIG     CG 7622   6.187   8.986   8.116
  526LIG    OD1 7623   6.126   9.085   8.047
  526LIG    OD2 7624   6.300   8.999   8.164
  526LIG      C 7625   5.919   8.985   8.232
  526LIG    OT1 7626   5.785   8.957   8.228
  526LIG    OT2 7627   5.975   9.109   8.224
  527LIG      N 7628   1.620   0.281   8.279
  527LIG     H1 7629   1.612   0.373   8.318
  527LIG     H2 7630   1.647   0.288   8.183
  527LIG     H3 7631   1.531   0.235   8.286
  527LIG     CA 7632   1.724   0.201   8.356
  527LIG     HA 7633   1.812   0.247   8.350
  527LIG     CB 7634   1.682   0.193   8.501
  527LIG    HB1 7635   1.592   0.149   8.507
  527LIG    HB2 7636   1.676   0.285   8.539
  527LIG     CG 7637   1.781   0.114   8.580
  527LIG    OD1 7638   1.761  -0.019   8.580
  527LIG    OD2 7639   1.874   0.167   8.641
  527LIG      C 7640   1.736   0.058   8.296
  527LIG    OT1 7641   1.655   0.028   8.190
  527LIG    OT2 7642   1.825  -0.026   8.355
  528LIG      N 7643   4.924   0.757   9.590
  528LIG     H1 7644   4.859   0.832   9.600
  528LIG     H2 7645   4.942   0.742   9.492
  528LIG     H3 7646   4.885   0.674   9.630
  528LIG     CA 7647   5.054   0.791   9.661
  528LIG     HA 7648   5.092   0.874   9.622
  528LIG     CB 7649   5.024   0.814   9.807
  528LIG    HB1 7650   4.982   0.732   9.847
  528LIG    HB2 7651   4.960   0.890   9.817
  528LIG     CG 7652   5.150   0.847   9.882
  528LIG    OD1 7653   5.219   0.740   9.926
  528LIG    OD2 7654   5.187   0.963   9.902
  528LIG      C 7655   5.155   0.674   9.646
  528LIG    OT1 7656   5.114   0.565   9.574
  528LIG    OT2 7657   5.277   0.690   9.705
  529LIG      N 7658   8.284   9.497   7.085
  529LIG     H1 7659   8.230   9.552   7.150
  529LIG     H2 7660   8.311   9.554   7.008
  529LIG     H3 7661   8.228   9.421   7.052
  529LIG     CA 7662   8.408   9.442   7.154
  529LIG     HA 7663   8.463   9.518   7.188
  529LIG     CB 7664   8.364   9.357   7.272
  529LIG    HB1 7665   8.306   9.282   7.239
  529LIG    HB2 7666   8.312   9.413   7.336
  529LIG     CG 7667   8.484   9.300   7.342
  529LIG    OD1 7668   8.530   9.184   7.290
  529LIG    OD2 7669   8.535   9.355   7.439
  529LIG      C 7670   8.491   9.357   7.055
  529LIG    OT1 7671   8.443   9.345   6.927
  529LIG    OT2 7672   8.606   9.301   7.102
  530LIG      N 7673   8.602   3.695   0.597
  530LIG     H1 7674   8.634   3.606   0.628
  530LIG     H2 7675   8.621   3.764   0.668
  530LIG     H3 7676   8.504   3.692   0.579
  530LIG     CA 7677   8.676   3.734   0.470
  530LIG     HA 7678   8.774   3.737   0.488
  530LIG     CB 7679   8.648   3.629   0.364
  530LIG    HB1 7680   8.549   3.623   0.348
  530LIG    HB2 7681   8.681   3.540   0.396
  530LIG     CG 7682   8.718   3.664   0.236
  530LIG    OD1 7683   8.649   3.746   0.155
  530LIG    OD2 7684   8.829   3.620   0.208
  530LIG      C 7685   8.627   3.872   0.420
  530LIG    OT1 7686   8.532   3.936   0.495
  530LIG    OT2 7687   8.684   3.921   0.306
  531LIG      N 7688   7.881   7.154   9.031
  531LIG     H1 7689   7.902   7.155   8.933
  531LIG     H2 7690   7.787   7.124   9.045
  531LIG     H3 7691   7.893   7.246   9.069
  531LIG     CA 7692   7.976   7.059   9.103
  531LIG     HA 7693   7.965   6.967   9.065
  531LIG     CB 7694   8.118   7.105   9.080
  531LIG    HB1 7695   8.129   7.199   9.115
  531LIG    HB2 7696   8.138   7.105   8.982
  531LIG     CG 7697   8.214   7.014   9.150
  531LIG    OD1 7698   8.238   7.046   9.279
  531LIG    OD2 7699   8.268   6.919   9.094
  531LIG      C 7700   7.944   7.057   9.255
  531LIG    OT1 7701   7.842   7.137   9.298
  531LIG    OT2 7702   8.021   6.976   9.333
  532LIG      N 7703   1.053   2.018   0.546
  532LIG     H1 7704   0.985   2.081   0.583
  532LIG     H2 7705   1.069   2.038   0.450
  532LIG     H3 7706   1.019   1.924   0.556
  532LIG     CA 7707   1.183   2.032   0.624
  532LIG     HA 7708   1.216   2.126   0.615
  532LIG     CB 7709   1.157   2.003   0.770
  532LIG    HB1 7710   1.120   1.910   0.779
  532LIG    HB2 7711   1.089   2.067   0.805
  532LIG     CG 7712   1.283   2.015   0.849
  532LIG    OD1 7713   1.359   1.903   0.853
  532LIG    OD2 7714   1.315   2.119   0.907
  532LIG      C 7715   1.289   1.934   0.568
  532LIG    OT1 7716   1.251   1.853   0.464
  532LIG    OT2 7717   1.412   1.935   0.627
  533LIG      N 7718   0.799   1.567   4.839
  533LIG     H1 7719   0.858   1.642   4.808
  533LIG     H2 7720   0.799   1.564   4.939
  533LIG     H3 7721   0.833   1.480   4.803
  533LIG     CA 7722   0.658   1.591   4.789
  533LIG     HA 7723   0.624   1.677   4.824
  533LIG     CB 7724   0.660   1.596   4.638
  533LIG    HB1 7725   0.696   1.510   4.601
  533LIG    HB2 7726   0.718   1.671   4.608
  533LIG     CG 7727   0.522   1.618   4.584
  533LIG    OD1 7728   0.450   1.505   4.566
  533LIG    OD2 7729   0.478   1.730   4.558
  533LIG      C 7730   0.565   1.475   4.836
  533LIG    OT1 7731   0.622   1.376   4.911
  533LIG    OT2 7732   0.434   1.482   4.799
  534LIG      N 7733   8.179   5.698   4.986
  534LIG     H1 7734   8.126   5.733   5.064
  534LIG     H2 7735   8.155   5.750   4.904
  534LIG     H3 7736   8.158   5.601   4.973
  534LIG     CA 7737   8.327   5.715   5.015
  534LIG     HA 7738   8.348   5.811   5.029
  534LIG     CB 7739   8.362   5.638   5.140
  534LIG    HB1 7740   8.339   5.541   5.128
  534LIG    HB2 7741   8.309   5.673   5.217
  534LIG     CG 7742   8.508   5.650   5.171
  534LIG    OD1 7743   8.587   5.560   5.109
  534LIG    OD2 7744   8.552   5.736   5.247
  534LIG      C 7745   8.410   5.661   4.895
  534LIG    OT1 7746   8.341   5.610   4.789
  534LIG    OT2 7747   8.546   5.668   4.906
  535LIG      N 7748   6.668   1.659   3.863
  535LIG     H1 7749   6.709   1.697   3.780
  535LIG     H2 7750   6.569   1.651   3.852
  535LIG     H3 7751   6.688   1.720   3.940
  535LIG     CA 7752   6.728   1.522   3.891
  535LIG     HA 7753   6.708   1.461   3.814
  535LIG     CB 7754   6.877   1.536   3.907
  535LIG    HB1 7755   6.898   1.599   3.982
  535LIG    HB2 7756   6.917   1.572   3.823
  535LIG     CG 7757   6.939   1.402   3.936
  535LIG    OD1 7758   6.941   1.368   4.066
  535LIG    OD2 7759   6.986   1.331   3.847
  535LIG      C 7760   6.666   1.463   4.021
  535LIG    OT1 7761   6.573   1.539   4.086
  535LIG    OT2 7762   6.709   1.339   4.059
  536LIG      N 7763   7.975   5.297   2.630
  536LIG     H1 7764   7.952   5.314   2.534
  536LIG     H2 7765   8.060   5.244   2.635
  536LIG     H3 7766   7.901   5.246   2.673
  536LIG     CA 7767   7.994   5.429   2.702
  536LIG     HA 7768   8.067   5.481   2.658
  536LIG     CB 7769   7.866   5.509   2.692
  536LIG    HB1 7770   7.790   5.457   2.733
  536LIG    HB2 7771   7.844   5.526   2.596
  536LIG     CG 7772   7.879   5.640   2.763
  536LIG    OD1 7773   7.852   5.635   2.896
  536LIG    OD2 7774   7.912   5.743   2.706
  536LIG      C 7775   8.029   5.404   2.851
  536LIG    OT1 7776   8.038   5.274   2.892
  536LIG    OT2 7777   8.049   5.514   2.929
  537LIG      N 7778   0.077   7.748   7.169
  537LIG     H1 7779   0.044   7.658   7.196
  537LIG     H2 7780   0.134   7.738   7.087
  537LIG     H3 7781   0.132   7.787   7.243
  537LIG     CA 7782  -0.040   7.839   7.139
  537LIG     HA 7783  -0.095   7.800   7.066
  537LIG     CB 7784  -0.126   7.851   7.263
  537LIG    HB1 7785  -0.071   7.888   7.339
  537LIG    HB2 7786  -0.160   7.761   7.290
  537LIG     CG 7787  -0.242   7.942   7.239
  537LIG    OD1 7788  -0.217   8.073   7.259
  537LIG    OD2 7789  -0.352   7.900   7.203
  537LIG      C 7790   0.011   7.979   7.097
  537LIG    OT1 7791   0.147   7.998   7.093
  537LIG    OT2 7792  -0.083   8.073   7.067
  538LIG      N 7793   4.766   9.979   6.185
  538LIG     H1 7794   4.717   9.892   6.195
  538LIG     H2 7795   4.836   9.986   6.256
  538LIG     H3 7796   4.701  10.055   6.193
  538LIG     CA 7797   4.832   9.984   6.048
  538LIG     HA 7798   4.896   9.908   6.039
  538LIG     CB 7799   4.725   9.971   5.942
  538LIG    HB1 7800   4.659  10.046   5.952
  538LIG    HB2 7801   4.677   9.884   5.952
  538LIG     CG 7802   4.786   9.978   5.805
  538LIG    OD1 7803   4.803  10.103   5.756
  538LIG    OD2 7804   4.818   9.877   5.742
  538LIG      C 7805   4.908  10.118   6.031
  538LIG    OT1 7806   4.904  10.206   6.136
  538LIG    OT2 7807   4.973  10.138   5.913
  539LIG      N 7808   8.550   5.750   9.075
  539LIG     H1 7809   8.645   5.780   9.084
  539LIG     H2 7810   8.538   5.701   8.988
  539LIG     H3 7811   8.489   5.830   9.078
  539LIG     CA 7812   8.515   5.657   9.191
  539LIG     HA 7813   8.575   5.578   9.189
  539LIG     CB 7814   8.534   5.732   9.321
  539LIG    HB1 7815   8.476   5.814   9.322
  539LIG    HB2 7816   8.629   5.760   9.329
  539LIG     CG 7817   8.499   5.644   9.437
  539LIG    OD1 7818   8.368   5.645   9.471
  539LIG    OD2 7819   8.583   5.578   9.497
  539LIG      C 7820   8.367   5.611   9.178
  539LIG    OT1 7821   8.295   5.658   9.071
  539LIG    OT2 7822   8.320   5.527   9.275
  540LIG      N 7823   1.778   2.746   2.992
  540LIG     H1 7824   1.768   2.845   3.004
  540LIG     H2 7825   1.789   2.702   3.081
  540LIG     H3 7826   1.857   2.726   2.934
  540LIG     CA 7827   1.652   2.691   2.925
  540LIG     HA 7828   1.573   2.711   2.982
  540LIG     CB 7829   1.635   2.759   2.791
  540LIG    HB1 7830   1.716   2.742   2.734
  540LIG    HB2 7831   1.625   2.857   2.804
  540LIG     CG 7832   1.513   2.707   2.721
  540LIG    OD1 7833   1.534   2.595   2.648
  540LIG    OD2 7834   1.404   2.762   2.730
  540LIG      C 7835   1.666   2.538   2.905
  540LIG    OT1 7836   1.781   2.479   2.949
  540LIG    OT2 7837   1.561   2.473   2.846
  541LIG      N 7838   8.771   1.215   0.247
  541LIG     H1 7839   8.690   1.206   0.189
  541LIG     H2 7840   8.748   1.265   0.330
  541LIG     H3 7841   8.843   1.264   0.197
  541LIG     CA 7842   8.822   1.076   0.284
  541LIG     HA 7843   8.751   1.027   0.333
  541LIG     CB 7844   8.855   1.001   0.157
  541LIG    HB1 7845   8.925   1.052   0.105
  541LIG    HB2 7846   8.774   0.992   0.100
  541LIG     CG 7847   8.907   0.864   0.189
  541LIG    OD1 7848   9.040   0.858   0.213
  541LIG    OD2 7849   8.835   0.765   0.192
  541LIG      C 7850   8.949   1.088   0.373
  541LIG    OT1 7851   8.992   1.214   0.403
  541LIG    OT2 7852   9.006   0.972   0.414
  542LIG      N 7853   9.979   5.359   2.280
  542LIG     H1 7854  10.028   5.408   2.208
  542LIG     H2 7855  10.043   5.303   2.332
  542LIG     H3 7856   9.909   5.300   2.238
  542LIG     CA 7857   9.911   5.458   2.373
  542LIG     HA 7858   9.980   5.517   2.414
  542LIG     CB 7859   9.816   5.543   2.292
  542LIG    HB1 7860   9.747   5.484   2.248
  542LIG    HB2 7861   9.865   5.593   2.222
  542LIG     CG 7862   9.746   5.641   2.381
  542LIG    OD1 7863   9.634   5.594   2.441
  542LIG    OD2 7864   9.787   5.756   2.397
  542LIG      C 7865   9.834   5.382   2.484
  542LIG    OT1 7866   9.839   5.246   2.481
  542LIG    OT2 7867   9.768   5.458   2.576
  543LIG      N 7868   1.162   2.382   5.666
  543LIG     H1 7869   1.254   2.343   5.655
  543LIG     H2 7870   1.114   2.380   5.578
  543LIG     H3 7871   1.169   2.476   5.699
  543LIG     CA 7872   1.084   2.299   5.767
  543LIG     HA 7873   1.078   2.204   5.735
  543LIG     CB 7874   1.158   2.300   5.899
  543LIG    HB1 7875   1.168   2.395   5.931
  543LIG    HB2 7876   1.249   2.261   5.887
  543LIG     CG 7877   1.084   2.221   6.002
  543LIG    OD1 7878   0.989   2.289   6.068
  543LIG    OD2 7879   1.109   2.102   6.024
  543LIG      C 7880   0.942   2.357   5.786
  543LIG    OT1 7881   0.910   2.468   5.712
  543LIG    OT2 7882   0.859   2.293   5.873
  544LIG      N 7883   8.007   2.972  10.027
  544LIG     H1 7884   7.981   3.023   9.945
  544LIG     H2 7885   7.958   3.008  10.106
  544LIG     H3 7886   8.105   2.979  10.042
  544LIG     CA 7887   7.971   2.825  10.008
  544LIG     HA 7888   7.872   2.817   9.992
  544LIG     CB 7889   8.044   2.772   9.887
  544LIG    HB1 7890   8.143   2.782   9.901
  544LIG    HB2 7891   8.018   2.823   9.806
  544LIG     CG 7892   8.012   2.627   9.866
  544LIG    OD1 7893   8.090   2.541   9.936
  544LIG    OD2 7894   7.923   2.590   9.790
  544LIG      C 7895   8.010   2.744  10.134
  544LIG    OT1 7896   8.068   2.813  10.237
  544LIG    OT2 7897   7.984   2.610  10.133
  545LIG      N 7898   5.727   8.715   1.508
  545LIG     H1 7899   5.731   8.680   1.602
  545LIG     H2 7900   5.713   8.638   1.445
  545LIG     H3 7901   5.813   8.761   1.486
  545LIG     CA 7902   5.612   8.814   1.495
  545LIG     HA 7903   5.527   8.768   1.517
  545LIG     CB 7904   5.635   8.928   1.591
  545LIG    HB1 7905   5.722   8.973   1.571
  545LIG    HB2 7906   5.637   8.893   1.685
  545LIG     CG 7907   5.524   9.028   1.580
  545LIG    OD1 7908   5.542   9.122   1.485
  545LIG    OD2 7909   5.425   9.026   1.653
  545LIG      C 7910   5.606   8.868   1.349
  545LIG    OT1 7911   5.699   8.821   1.261
  545LIG    OT2 7912   5.508   8.958   1.321
  546LIG      N 7913   9.670   9.334   4.556
  546LIG     H1 7914   9.662   9.414   4.495
  546LIG     H2 7915   9.621   9.257   4.517
  546LIG     H3 7916   9.632   9.357   4.646
  546LIG     CA 7917   9.817   9.298   4.573
  546LIG     HA 7918   9.856   9.276   4.484
  546LIG     CB 7919   9.891   9.416   4.631
  546LIG    HB1 7920   9.850   9.441   4.720
  546LIG    HB2 7921   9.883   9.494   4.570
  546LIG     CG 7922  10.036   9.383   4.650
  546LIG    OD1 7923  10.065   9.323   4.768
  546LIG    OD2 7924  10.121   9.410   4.566
  546LIG      C 7925   9.831   9.175   4.667
  546LIG    OT1 7926   9.715   9.122   4.718
  546LIG    OT2 7927   9.957   9.130   4.692
  547LIG      N 7928   2.045   2.829   2.780
  547LIG     H1 7929   1.999   2.914   2.806
  547LIG     H2 7930   2.052   2.824   2.680
  547LIG     H3 7931   1.991   2.751   2.814
  547LIG     CA 7932   2.184   2.825   2.841
  547LIG     HA 7933   2.237   2.902   2.808
  547LIG     CB 7934   2.171   2.833   2.991
  547LIG    HB1 7935   2.116   2.757   3.025
  547LIG    HB2 7936   2.127   2.919   3.017
  547LIG     CG 7937   2.306   2.828   3.055
  547LIG    OD1 7938   2.353   2.703   3.079
  547LIG    OD2 7939   2.370   2.929   3.085
  547LIG      C 7940   2.255   2.692   2.801
  547LIG    OT1 7941   2.185   2.605   2.722
  547LIG    OT2 7942   2.381   2.674   2.849
  548LIG      N 7943   9.566   4.091   7.487
  548LIG     H1 7944   9.507   4.152   7.433
  548LIG     H2 7945   9.512   4.044   7.556
  548LIG     H3 7946   9.638   4.145   7.531
  548LIG     CA 7947   9.631   3.989   7.395
  548LIG     HA 7948   9.560   3.935   7.350
  548LIG     CB 7949   9.711   4.062   7.290
  548LIG    HB1 7950   9.782   4.118   7.334
  548LIG    HB2 7951   9.652   4.121   7.236
  548LIG     CG 7952   9.778   3.964   7.197
  548LIG    OD1 7953   9.898   3.918   7.240
  548LIG    OD2 7954   9.727   3.929   7.091
  548LIG      C 7955   9.723   3.894   7.476
  548LIG    OT1 7956   9.732   3.917   7.611
  548LIG    OT2 7957   9.789   3.797   7.407
  549LIG      N 7958   0.731   4.155   3.044
  549LIG     H1 7959   0.671   4.225   3.084
  549LIG     H2 7960   0.769   4.098   3.117
  549LIG     H3 7961   0.805   4.199   2.994
  549LIG     CA 7962   0.650   4.068   2.949
  549LIG     HA 7963   0.575   4.025   2.999
  549LIG     CB 7964   0.592   4.156   2.841
  549LIG    HB1 7965   0.666   4.202   2.791
  549LIG    HB2 7966   0.532   4.225   2.881
  549LIG     CG 7967   0.513   4.073   2.744
  549LIG    OD1 7968   0.585   4.019   2.644
  549LIG    OD2 7969   0.391   4.058   2.754
  549LIG      C 7970   0.741   3.959   2.886
  549LIG    OT1 7971   0.873   3.959   2.925
  549LIG    OT2 7972   0.683   3.873   2.798
  550LIG      N 7973   4.840   5.220   0.791
  550LIG     H1 7974   4.810   5.180   0.877
  550LIG     H2 7975   4.901   5.157   0.743
  550LIG     H3 7976   4.888   5.306   0.809
  550LIG     CA 7977   4.718   5.249   0.704
  550LIG     HA 7978   4.669   5.164   0.686
  550LIG     CB 7979   4.627   5.344   0.778
  550LIG    HB1 7980   4.677   5.429   0.799
  550LIG    HB2 7981   4.597   5.303   0.864
  550LIG     CG 7982   4.507   5.376   0.695
  550LIG    OD1 7983   4.523   5.479   0.609
  550LIG    OD2 7984   4.401   5.314   0.705
  550LIG      C 7985   4.763   5.313   0.570
  550LIG    OT1 7986   4.898   5.332   0.551
  550LIG    OT2 7987   4.665   5.345   0.481
  551LIG      N 7988   7.405  -0.001   7.950
  551LIG     H1 7989   7.363   0.047   7.873
  551LIG     H2 7990   7.403  -0.100   7.933
  551LIG     H3 7991   7.355   0.020   8.034
  551LIG     CA 7992   7.549   0.044   7.966
  551LIG     HA 7993   7.600   0.025   7.882
  551LIG     CB 7994   7.551   0.194   7.990
  551LIG    HB1 7995   7.498   0.215   8.073
  551LIG    HB2 7996   7.510   0.241   7.913
  551LIG     CG 7997   7.692   0.242   8.008
  551LIG    OD1 7998   7.739   0.233   8.134
  551LIG    OD2 7999   7.758   0.287   7.915
  551LIG      C 8000   7.616  -0.030   8.085
  551LIG    OT1 8001   7.538  -0.119   8.154
  551LIG    OT2 8002   7.746   0.001   8.112
  552LIG      N 8003   9.623   1.068   7.332
  552LIG     H1 8004   9.590   1.123   7.255
  552LIG     H2 8005   9.575   0.980   7.334
  552LIG     H3 8006   9.605   1.117   7.418
  552LIG     CA 8007   9.772   1.044   7.319
  552LIG     HA 8008   9.790   0.996   7.233
  552LIG     CB 8009   9.843   1.178   7.315
  552LIG    HB1 8010   9.823   1.229   7.400
  552LIG    HB2 8011   9.811   1.231   7.238
  552LIG     CG 8012   9.991   1.159   7.303
  552LIG    OD1 8013  10.056   1.141   7.421
  552LIG    OD2 8014  10.049   1.159   7.195
  552LIG      C 8015   9.824   0.960   7.438
  552LIG    OT1 8016   9.732   0.922   7.532
  552LIG    OT2 8017   9.957   0.930   7.440
  553LIG      N 8018   7.217   9.604   1.748
  553LIG     H1 8019   7.160   9.677   1.786
  553LIG     H2 8020   7.194   9.592   1.651
  553LIG     H3 8021   7.199   9.519   1.797
  553LIG     CA 8022   7.364   9.640   1.762
  553LIG     HA 8023   7.382   9.725   1.713
  553LIG     CB 8024   7.395   9.659   1.908
  553LIG    HB1 8025   7.375   9.575   1.959
  553LIG    HB2 8026   7.339   9.733   1.946
  553LIG     CG 8027   7.540   9.694   1.927
  553LIG    OD1 8028   7.623   9.587   1.935
  553LIG    OD2 8029   7.580   9.810   1.934
  553LIG      C 8030   7.452   9.527   1.703
  553LIG    OT1 8031   7.388   9.418   1.650
  553LIG    OT2 8032   7.587   9.544   1.708
  554LIG      N 8033   1.656   0.868   3.118
  554LIG     H1 8034   1.750   0.894   3.140
  554LIG     H2 8035   1.594   0.902   3.189
  554LIG     H3 8036   1.649   0.768   3.112
  554LIG     CA 8037   1.617   0.928   2.984
  554LIG     HA 8038   1.625   1.028   2.989
  554LIG     CB 8039   1.712   0.877   2.878
  554LIG    HB1 8040   1.708   0.777   2.874
  554LIG    HB2 8041   1.806   0.904   2.901
  554LIG     CG 8042   1.677   0.934   2.744
  554LIG    OD1 8043   1.583   0.864   2.676
  554LIG    OD2 8044   1.729   1.036   2.699
  554LIG      C 8045   1.472   0.889   2.948
  554LIG    OT1 8046   1.404   0.810   3.037
  554LIG    OT2 8047   1.422   0.936   2.830
  555LIG      N 8048   0.073   3.730   1.655
  555LIG     H1 8049   0.107   3.658   1.716
  555LIG     H2 8050   0.149   3.788   1.626
  555LIG     H3 8051   0.005   3.785   1.704
  555LIG     CA 8052   0.007   3.667   1.533
  555LIG     HA 8053   0.074   3.612   1.485
  555LIG     CB 8054  -0.106   3.578   1.579
  555LIG    HB1 8055  -0.173   3.633   1.630
  555LIG    HB2 8056  -0.071   3.506   1.638
  555LIG     CG 8057  -0.175   3.516   1.461
  555LIG    OD1 8058  -0.272   3.591   1.405
  555LIG    OD2 8059  -0.144   3.404   1.419
  555LIG      C 8060  -0.047   3.778   1.439
  555LIG    OT1 8061  -0.028   3.908   1.478
  555LIG    OT2 8062  -0.109   3.738   1.325
  556LIG      N 8063   4.273   1.048   3.566
  556LIG     H1 8064   4.306   1.131   3.610
  556LIG     H2 8065   4.183   1.065   3.525
  556LIG     H3 8066   4.266   0.974   3.634
  556LIG     CA 8067   4.370   1.006   3.457
  556LIG     HA 8068   4.377   1.079   3.389
  556LIG     CB 8069   4.506   0.982   3.519
  556LIG    HB1 8070   4.498   0.910   3.589
  556LIG    HB2 8071   4.538   1.066   3.562
  556LIG     CG 8072   4.604   0.939   3.415
  556LIG    OD1 8073   4.606   0.806   3.390
  556LIG    OD2 8074   4.678   1.018   3.357
  556LIG      C 8075   4.320   0.876   3.388
  556LIG    OT1 8076   4.202   0.822   3.433
  556LIG    OT2 8077   4.397   0.825   3.287
  557LIG      N 8078   1.186   3.517   2.540
  557LIG     H1 8079   1.156   3.424   2.562
  557LIG     H2 8080   1.286   3.520   2.537
  557LIG     H3 8081   1.152   3.580   2.610
  557LIG     CA 8082   1.129   3.558   2.405
  557LIG     HA 8083   1.162   3.496   2.335
  557LIG     CB 8084   0.978   3.551   2.411
  557LIG    HB1 8085   0.945   3.612   2.484
  557LIG    HB2 8086   0.950   3.458   2.432
  557LIG     CG 8087   0.919   3.593   2.280
  557LIG    OD1 8088   0.900   3.726   2.266
  557LIG    OD2 8089   0.889   3.512   2.193
  557LIG      C 8090   1.174   3.703   2.371
  557LIG    OT1 8091   1.253   3.767   2.462
  557LIG    OT2 8092   1.131   3.755   2.253
  558LIG      N 8093   7.687   1.473   9.948
  558LIG     H1 8094   7.590   1.494   9.938
  558LIG     H2 8095   7.738   1.557   9.968
  558LIG     H3 8096   7.721   1.432   9.863
  558LIG     CA 8097   7.707   1.374  10.061
  558LIG     HA 8098   7.673   1.413  10.146
  558LIG     CB 8099   7.629   1.248  10.031
  558LIG    HB1 8100   7.661   1.209   9.944
  558LIG    HB2 8101   7.532   1.269  10.022
  558LIG     CG 8102   7.647   1.147  10.140
  558LIG    OD1 8103   7.756   1.068  10.127
  558LIG    OD2 8104   7.569   1.137  10.234
  558LIG      C 8105   7.858   1.340  10.077
  558LIG    OT1 8106   7.944   1.401   9.990
  558LIG    OT2 8107   7.892   1.252  10.175
  559LIG      N 8108   3.643   8.315   9.405
  559LIG     H1 8109   3.611   8.295   9.311
  559LIG     H2 8110   3.637   8.231   9.460
  559LIG     H3 8111   3.584   8.385   9.445
  559LIG     CA 8112   3.786   8.364   9.401
  559LIG     HA 8113   3.844   8.294   9.360
  559LIG     CB 8114   3.793   8.490   9.316
  559LIG    HB1 8115   3.732   8.560   9.355
  559LIG    HB2 8116   3.762   8.469   9.224
  559LIG     CG 8117   3.933   8.542   9.312
  559LIG    OD1 8118   3.966   8.625   9.414
  559LIG    OD2 8119   4.011   8.514   9.221
  559LIG      C 8120   3.835   8.395   9.545
  559LIG    OT1 8121   3.747   8.374   9.647
  559LIG    OT2 8122   3.963   8.441   9.558
  560LIG      N 8123   5.936   5.485   0.650
  560LIG     H1 8124   5.901   5.576   0.671
  560LIG     H2 8125   5.960   5.479   0.553
  560LIG     H3 8126   5.866   5.417   0.672
  560LIG     CA 8127   6.059   5.458   0.735
  560LIG     HA 8128   6.129   5.527   0.714
  560LIG     CB 8129   6.022   5.469   0.881
  560LIG    HB1 8130   5.950   5.402   0.902
  560LIG    HB2 8131   5.988   5.560   0.900
  560LIG     CG 8132   6.141   5.442   0.967
  560LIG    OD1 8133   6.163   5.311   0.995
  560LIG    OD2 8134   6.214   5.532   1.010
  560LIG      C 8135   6.115   5.316   0.704
  560LIG    OT1 8136   6.047   5.242   0.611
  560LIG    OT2 8137   6.226   5.277   0.772
  561LIG      N 8138   8.758   2.364   3.822
  561LIG     H1 8139   8.840   2.369   3.764
  561LIG     H2 8140   8.783   2.392   3.916
  561LIG     H3 8141   8.723   2.271   3.823
  561LIG     CA 8142   8.651   2.458   3.769
  561LIG     HA 8143   8.687   2.551   3.767
  561LIG     CB 8144   8.617   2.417   3.627
  561LIG    HB1 8145   8.584   2.322   3.627
  561LIG    HB2 8146   8.698   2.423   3.570
  561LIG     CG 8147   8.510   2.506   3.571
  561LIG    OD1 8148   8.384   2.468   3.600
  561LIG    OD2 8149   8.536   2.605   3.503
  561LIG      C 8150   8.525   2.451   3.858
  561LIG    OT1 8151   8.529   2.367   3.966
  561LIG    OT2 8152   8.419   2.530   3.823
  562LIG      N 8153   6.689   1.303   9.730
  562LIG     H1 8154   6.645   1.219   9.698
  562LIG     H2 8155   6.696   1.302   9.830
  562LIG     H3 8156   6.634   1.382   9.701
  562LIG     CA 8157   6.827   1.314   9.669
  562LIG     HA 8158   6.882   1.235   9.697
  562LIG     CB 8159   6.815   1.314   9.518
  562LIG    HB1 8160   6.758   1.392   9.489
  562LIG    HB2 8161   6.772   1.229   9.488
  562LIG     CG 8162   6.950   1.326   9.455
  562LIG    OD1 8163   6.994   1.453   9.439
  562LIG    OD2 8164   7.015   1.228   9.419
  562LIG      C 8165   6.896   1.445   9.717
  562LIG    OT1 8166   6.825   1.525   9.801
  562LIG    OT2 8167   7.022   1.469   9.670
  563LIG      N 8168   7.408   0.697   8.362
  563LIG     H1 8169   7.372   0.790   8.365
  563LIG     H2 8170   7.490   0.694   8.306
  563LIG     H3 8171   7.338   0.636   8.323
  563LIG     CA 8172   7.441   0.651   8.503
  563LIG     HA 8173   7.509   0.712   8.542
  563LIG     CB 8174   7.315   0.656   8.587
  563LIG    HB1 8175   7.245   0.597   8.546
  563LIG    HB2 8176   7.281   0.750   8.590
  563LIG     CG 8177   7.344   0.610   8.727
  563LIG    OD1 8178   7.335   0.477   8.745
  563LIG    OD2 8179   7.372   0.688   8.818
  563LIG      C 8180   7.496   0.506   8.500
  563LIG    OT1 8181   7.506   0.445   8.377
  563LIG    OT2 8182   7.530   0.450   8.619
  564LIG      N 8183   0.366   0.574   2.076
  564LIG     H1 8184   0.387   0.480   2.104
  564LIG     H2 8185   0.420   0.638   2.130
  564LIG     H3 8186   0.268   0.591   2.089
  564LIG     CA 8187   0.400   0.591   1.928
  564LIG     HA 8188   0.497   0.572   1.914
  564LIG     CB 8189   0.319   0.491   1.848
  564LIG    HB1 8190   0.221   0.507   1.864
  564LIG    HB2 8191   0.341   0.398   1.877
  564LIG     CG 8192   0.348   0.506   1.702
  564LIG    OD1 8193   0.274   0.599   1.638
  564LIG    OD2 8194   0.433   0.438   1.644
  564LIG      C 8195   0.366   0.735   1.883
  564LIG    OT1 8196   0.315   0.820   1.977
  564LIG    OT2 8197   0.391   0.766   1.752
  565LIG      N 8198   7.523   0.549   1.742
  565LIG     H1 8199   7.618   0.565   1.771
  565LIG     H2 8200   7.523   0.490   1.661
  565LIG     H3 8201   7.479   0.636   1.721
  565LIG     CA 8202   7.447   0.480   1.854
  565LIG     HA 8203   7.491   0.394   1.876
  565LIG     CB 8204   7.449   0.569   1.976
  565LIG    HB1 8205   7.407   0.658   1.954
  565LIG    HB2 8206   7.543   0.585   2.005
  565LIG     CG 8207   7.373   0.506   2.089
  565LIG    OD1 8208   7.240   0.531   2.089
  565LIG    OD2 8209   7.428   0.437   2.175
  565LIG      C 8210   7.300   0.454   1.810
  565LIG    OT1 8211   7.265   0.495   1.684
  565LIG    OT2 8212   7.218   0.393   1.900
  566LIG      N 8213   2.554   1.184   8.577
  566LIG     H1 8214   2.528   1.205   8.671
  566LIG     H2 8215   2.612   1.257   8.542
  566LIG     H3 8216   2.473   1.174   8.520
  566LIG     CA 8217   2.632   1.052   8.575
  566LIG     HA 8218   2.713   1.061   8.632
  566LIG     CB 8219   2.543   0.943   8.630
  566LIG    HB1 8220   2.460   0.936   8.575
  566LIG    HB2 8221   2.518   0.964   8.724
  566LIG     CG 8222   2.615   0.812   8.628
  566LIG    OD1 8223   2.606   0.744   8.511
  566LIG    OD2 8224   2.678   0.769   8.725
  566LIG      C 8225   2.673   1.018   8.429
  566LIG    OT1 8226   2.636   1.107   8.331
  566LIG    OT2 8227   2.743   0.903   8.410
  567LIG      N 8228   3.648   9.810   1.529
  567LIG     H1 8229   3.725   9.832   1.589
  567LIG     H2 8230   3.565   9.852   1.566
  567LIG     H3 8231   3.636   9.711   1.525
  567LIG     CA 8232   3.674   9.863   1.389
  567LIG     HA 8233   3.686   9.962   1.393
  567LIG     CB 8234   3.800   9.799   1.336
  567LIG    HB1 8235   3.790   9.699   1.334
  567LIG    HB2 8236   3.877   9.822   1.395
  567LIG     CG 8237   3.829   9.848   1.197
  567LIG    OD1 8238   3.767   9.778   1.099
  567LIG    OD2 8239   3.903   9.943   1.174
  567LIG      C 8240   3.554   9.829   1.296
  567LIG    OT1 8241   3.449   9.760   1.352
  567LIG    OT2 8242   3.563   9.869   1.167
  568LIG      N 8243   9.426   6.762   4.635
  568LIG     H1 8244   9.445   6.831   4.565
  568LIG     H2 8245   9.330   6.735   4.631
  568LIG     H3 8246   9.446   6.801   4.725
  568LIG     CA 8247   9.515   6.641   4.612
  568LIG     HA 8248   9.496   6.603   4.521
  568LIG     CB 8249   9.660   6.684   4.617
  568LIG    HB1 8250   9.679   6.725   4.707
  568LIG    HB2 8251   9.677   6.752   4.547
  568LIG     CG 8252   9.750   6.567   4.596
  568LIG    OD1 8253   9.779   6.497   4.708
  568LIG    OD2 8254   9.795   6.537   4.485
  568LIG      C 8255   9.487   6.534   4.720
  568LIG    OT1 8256   9.393   6.563   4.815
  568LIG    OT2 8257   9.559   6.418   4.713
  569LIG      N 8258   1.098   7.631   8.429
  569LIG     H1 8259   1.056   7.541   8.428
  569LIG     H2 8260   1.035   7.698   8.388
  569LIG     H3 8261   1.183   7.629   8.377
  569LIG     CA 8262   1.128   7.672   8.572
  569LIG     HA 8263   1.043   7.674   8.625
  569LIG     CB 8264   1.222   7.571   8.633
  569LIG    HB1 8265   1.307   7.566   8.579
  569LIG    HB2 8266   1.179   7.481   8.633
  569LIG     CG 8267   1.256   7.608   8.774
  569LIG    OD1 8268   1.360   7.694   8.787
  569LIG    OD2 8269   1.193   7.564   8.871
  569LIG      C 8270   1.194   7.813   8.575
  569LIG    OT1 8271   1.213   7.875   8.454
  569LIG    OT2 8272   1.227   7.864   8.697
  570LIG      N 8273   2.539   9.931   4.143
  570LIG     H1 8274   2.523  10.017   4.094
  570LIG     H2 8275   2.452   9.892   4.173
  570LIG     H3 8276   2.597   9.949   4.223
  570LIG     CA 8277   2.610   9.833   4.052
  570LIG     HA 8278   2.554   9.815   3.971
  570LIG     CB 8279   2.741   9.894   4.007
  570LIG    HB1 8280   2.798   9.914   4.087
  570LIG    HB2 8281   2.724   9.978   3.957
  570LIG     CG 8282   2.815   9.799   3.918
  570LIG    OD1 8283   2.893   9.709   3.982
  570LIG    OD2 8284   2.806   9.803   3.795
  570LIG      C 8285   2.637   9.700   4.127
  570LIG    OT1 8286   2.594   9.692   4.257
  570LIG    OT2 8287   2.700   9.601   4.058
  571LIG      N 8288   1.002   8.330   7.397
  571LIG     H1 8289   1.010   8.272   7.478
  571LIG     H2 8290   1.062   8.296   7.325
  571LIG     H3 8291   1.026   8.424   7.421
  571LIG     CA 8292   0.858   8.327   7.348
  571LIG     HA 8293   0.832   8.234   7.325
  571LIG     CB 8294   0.767   8.377   7.458
  571LIG    HB1 8295   0.794   8.471   7.484
  571LIG    HB2 8296   0.776   8.318   7.538
  571LIG     CG 8297   0.625   8.377   7.413
  571LIG    OD1 8298   0.586   8.489   7.348
  571LIG    OD2 8299   0.548   8.283   7.434
  571LIG      C 8300   0.843   8.418   7.223
  571LIG    OT1 8301   0.955   8.482   7.179
  571LIG    OT2 8302   0.719   8.426   7.166
  572LIG      N 8303   4.405   0.905   7.178
  572LIG     H1 8304   4.368   0.824   7.224
  572LIG     H2 8305   4.444   0.967   7.246
  572LIG     H3 8306   4.331   0.951   7.128
  572LIG     CA 8307   4.513   0.863   7.079
  572LIG     HA 8308   4.586   0.816   7.128
  572LIG     CB 8309   4.452   0.768   6.978
  572LIG    HB1 8310   4.376   0.813   6.930
  572LIG    HB2 8311   4.417   0.687   7.025
  572LIG     CG 8312   4.555   0.725   6.878
  572LIG    OD1 8313   4.570   0.808   6.773
  572LIG    OD2 8314   4.621   0.622   6.891
  572LIG      C 8315   4.570   0.988   7.007
  572LIG    OT1 8316   4.518   1.109   7.041
  572LIG    OT2 8317   4.668   0.966   6.915
  573LIG      N 8318   7.970   4.043   5.723
  573LIG     H1 8319   7.935   3.957   5.760
  573LIG     H2 8320   8.053   4.070   5.772
  573LIG     H3 8321   7.900   4.114   5.734
  573LIG     CA 8322   8.001   4.026   5.575
  573LIG     HA 8323   8.071   3.955   5.564
  573LIG     CB 8324   7.876   3.984   5.503
  573LIG    HB1 8325   7.804   4.054   5.516
  573LIG    HB2 8326   7.843   3.898   5.540
  573LIG     CG 8327   7.903   3.968   5.356
  573LIG    OD1 8328   7.892   4.082   5.284
  573LIG    OD2 8329   7.932   3.860   5.306
  573LIG      C 8330   8.054   4.160   5.517
  573LIG    OT1 8331   8.063   4.267   5.603
  573LIG    OT2 8332   8.087   4.161   5.385
  574LIG      N 8333   3.778   8.957   5.285
  574LIG     H1 8334   3.773   8.966   5.185
  574LIG     H2 8335   3.808   8.865   5.309
  574LIG     H3 8336   3.687   8.974   5.324
  574LIG     CA 8337   3.875   9.059   5.341
  574LIG     HA 8338   3.966   9.043   5.302
  574LIG     CB 8339   3.828   9.198   5.303
  574LIG    HB1 8340   3.736   9.213   5.340
  574LIG    HB2 8341   3.826   9.206   5.204
  574LIG     CG 8342   3.922   9.301   5.359
  574LIG    OD1 8343   3.894   9.340   5.485
  574LIG    OD2 8344   4.015   9.348   5.293
  574LIG      C 8345   3.882   9.046   5.496
  574LIG    OT1 8346   3.804   8.950   5.554
  574LIG    OT2 8347   3.966   9.131   5.562
  575LIG      N 8348   4.733   1.183   8.530
  575LIG     H1 8349   4.713   1.236   8.613
  575LIG     H2 8350   4.647   1.152   8.489
  575LIG     H3 8351   4.790   1.105   8.553
  575LIG     CA 8352   4.807   1.271   8.430
  575LIG     HA 8353   4.751   1.351   8.408
  575LIG     CB 8354   4.936   1.319   8.494
  575LIG    HB1 8355   4.992   1.240   8.519
  575LIG    HB2 8356   4.915   1.372   8.576
  575LIG     CG 8357   5.012   1.405   8.398
  575LIG    OD1 8358   5.093   1.337   8.313
  575LIG    OD2 8359   5.003   1.528   8.397
  575LIG      C 8360   4.838   1.191   8.301
  575LIG    OT1 8361   4.796   1.060   8.297
  575LIG    OT2 8362   4.904   1.256   8.202
  576LIG      N 8363   1.072   4.263   9.802
  576LIG     H1 8364   1.167   4.285   9.782
  576LIG     H2 8365   1.019   4.259   9.717
  576LIG     H3 8366   1.033   4.334   9.862
  576LIG     CA 8367   1.064   4.129   9.873
  576LIG     HA 8368   1.103   4.058   9.814
  576LIG     CB 8369   1.145   4.136  10.001
  576LIG    HB1 8370   1.108   4.209  10.060
  576LIG    HB2 8371   1.240   4.157   9.980
  576LIG     CG 8372   1.138   4.005  10.074
  576LIG    OD1 8373   1.032   3.992  10.156
  576LIG    OD2 8374   1.224   3.918  10.060
  576LIG      C 8375   0.916   4.094   9.905
  576LIG    OT1 8376   0.821   4.185   9.867
  576LIG    OT2 8377   0.893   3.976   9.969
  577LIG      N 8378   9.109   5.461   1.394
  577LIG     H1 8379   9.205   5.478   1.372
  577LIG     H2 8380   9.076   5.383   1.340
  577LIG     H3 8381   9.055   5.543   1.371
  577LIG     CA 8382   9.094   5.431   1.542
  577LIG     HA 8383   9.148   5.351   1.565
  577LIG     CB 8384   9.145   5.550   1.621
  577LIG    HB1 8385   9.093   5.632   1.597
  577LIG    HB2 8386   9.241   5.565   1.600
  577LIG     CG 8387   9.131   5.524   1.768
  577LIG    OD1 8388   9.011   5.558   1.820
  577LIG    OD2 8389   9.222   5.478   1.836
  577LIG      C 8390   8.945   5.405   1.576
  577LIG    OT1 8391   8.855   5.413   1.474
  577LIG    OT2 8392   8.915   5.377   1.706
  578LIG      N 8393   1.485   1.731   6.948
  578LIG     H1 8394   1.483   1.739   6.848
  578LIG     H2 8395   1.557   1.792   6.984
  578LIG     H3 8396   1.504   1.637   6.974
  578LIG     CA 8397   1.350   1.773   7.005
  578LIG     HA 8398   1.330   1.867   6.979
  578LIG     CB 8399   1.244   1.682   6.949
  578LIG    HB1 8400   1.264   1.586   6.973
  578LIG    HB2 8401   1.241   1.690   6.850
  578LIG     CG 8402   1.109   1.718   7.004
  578LIG    OD1 8403   1.079   1.660   7.122
  578LIG    OD2 8404   1.032   1.795   6.946
  578LIG      C 8405   1.353   1.761   7.160
  578LIG    OT1 8406   1.470   1.719   7.218
  578LIG    OT2 8407   1.239   1.795   7.227
  579LIG      N 8408   0.726   2.768   9.878
  579LIG     H1 8409   0.640   2.762   9.929
  579LIG     H2 8410   0.710   2.815   9.791
  579LIG     H3 8411   0.761   2.676   9.861
  579LIG     CA 8412   0.828   2.846   9.959
  579LIG     HA 8413   0.793   2.938   9.977
  579LIG     CB 8414   0.850   2.775  10.091
  579LIG    HB1 8415   0.883   2.682  10.074
  579LIG    HB2 8416   0.764   2.770  10.141
  579LIG     CG 8417   0.952   2.848  10.173
  579LIG    OD1 8418   1.080   2.815  10.148
  579LIG    OD2 8419   0.920   2.932  10.258
  579LIG      C 8420   0.962   2.855   9.881
  579LIG    OT1 8421   0.967   2.795   9.758
  579LIG    OT2 8422   1.064   2.923   9.941
  580LIG      N 8423  10.015   6.343   0.180
  580LIG     H1 8424   9.949   6.270   0.199
  580LIG     H2 8425  10.047   6.336   0.086
  580LIG     H3 8426  10.093   6.335   0.243
  580LIG     CA 8427   9.949   6.478   0.201
  580LIG     HA 8428   9.871   6.487   0.140
  580LIG     CB 8429   9.901   6.488   0.344
  580LIG    HB1 8430   9.978   6.476   0.407
  580LIG    HB2 8431   9.834   6.415   0.362
  580LIG     CG 8432   9.836   6.620   0.369
  580LIG    OD1 8433   9.921   6.719   0.404
  580LIG    OD2 8434   9.715   6.638   0.358
  580LIG      C 8435  10.051   6.592   0.172
  580LIG    OT1 8436  10.177   6.555   0.135
  580LIG    OT2 8437  10.006   6.720   0.187
  581LIG      N 8438   5.392   1.606   6.228
  581LIG     H1 8439   5.422   1.544   6.301
  581LIG     H2 8440   5.455   1.599   6.150
  581LIG     H3 8441   5.392   1.700   6.262
  581LIG     CA 8442   5.252   1.568   6.183
  581LIG     HA 8443   5.252   1.474   6.149
  581LIG     CB 8444   5.159   1.578   6.301
  581LIG    HB1 8445   5.160   1.671   6.337
  581LIG    HB2 8446   5.188   1.515   6.372
  581LIG     CG 8447   5.019   1.543   6.260
  581LIG    OD1 8448   4.947   1.646   6.210
  581LIG    OD2 8449   4.973   1.429   6.272
  581LIG      C 8450   5.205   1.664   6.070
  581LIG    OT1 8451   5.292   1.762   6.031
  581LIG    OT2 8452   5.081   1.643   6.019
  582LIG      N 8453   2.170   8.164   1.363
  582LIG     H1 8454   2.226   8.096   1.314
  582LIG     H2 8455   2.158   8.135   1.458
  582LIG     H3 8456   2.081   8.171   1.318
  582LIG     CA 8457   2.240   8.299   1.359
  582LIG     HA 8458   2.329   8.292   1.403
  582LIG     CB 8459   2.259   8.341   1.215
  582LIG    HB1 8460   2.170   8.345   1.169
  582LIG    HB2 8461   2.315   8.273   1.168
  582LIG     CG 8462   2.325   8.474   1.207
  582LIG    OD1 8463   2.241   8.580   1.213
  582LIG    OD2 8464   2.447   8.487   1.196
  582LIG      C 8465   2.153   8.405   1.433
  582LIG    OT1 8466   2.035   8.362   1.487
  582LIG    OT2 8467   2.202   8.532   1.439
  583LIG      N 8468   0.396   3.552   8.032
  583LIG     H1 8469   0.482   3.501   8.033
  583LIG     H2 8470   0.348   3.537   8.119
  583LIG     H3 8471   0.340   3.520   7.956
  583LIG     CA 8472   0.424   3.700   8.014
  583LIG     HA 8473   0.481   3.732   8.089
  583LIG     CB 8474   0.498   3.720   7.884
  583LIG    HB1 8475   0.443   3.686   7.808
  583LIG    HB2 8476   0.585   3.670   7.886
  583LIG     CG 8477   0.527   3.866   7.862
  583LIG    OD1 8478   0.427   3.934   7.802
  583LIG    OD2 8479   0.633   3.918   7.895
  583LIG      C 8480   0.291   3.780   8.012
  583LIG    OT1 8481   0.175   3.708   8.026
  583LIG    OT2 8482   0.299   3.915   7.996
  584LIG      N 8483   8.242  10.021   3.830
  584LIG     H1 8484   8.296   9.952   3.877
  584LIG     H2 8485   8.203  10.085   3.896
  584LIG     H3 8486   8.167   9.976   3.780
  584LIG     CA 8487   8.330  10.096   3.731
  584LIG     HA 8488   8.404  10.140   3.781
  584LIG     CB 8489   8.388   9.998   3.632
  584LIG    HB1 8490   8.313   9.951   3.584
  584LIG    HB2 8491   8.443   9.930   3.680
  584LIG     CG 8492   8.474  10.069   3.532
  584LIG    OD1 8493   8.408  10.118   3.426
  584LIG    OD2 8494   8.596  10.080   3.547
  584LIG      C 8495   8.246  10.203   3.656
  584LIG    OT1 8496   8.113  10.213   3.689
  584LIG    OT2 8497   8.311  10.280   3.564
  585LIG      N 8498   4.787   7.668   0.058
  585LIG     H1 8499   4.859   7.616   0.012
  585LIG     H2 8500   4.709   7.608   0.077
  585LIG     H3 8501   4.758   7.743  -0.001
  585LIG     CA 8502   4.840   7.725   0.188
  585LIG     HA 8503   4.870   7.651   0.248
  585LIG     CB 8504   4.958   7.815   0.158
  585LIG    HB1 8505   4.929   7.889   0.097
  585LIG    HB2 8506   5.030   7.762   0.114
  585LIG     CG 8507   5.012   7.874   0.285
  585LIG    OD1 8508   4.951   7.988   0.324
  585LIG    OD2 8509   5.105   7.824   0.347
  585LIG      C 8510   4.728   7.807   0.260
  585LIG    OT1 8511   4.606   7.814   0.197
  585LIG    OT2 8512   4.760   7.864   0.379
  586LIG      N 8513   5.439   9.798   7.233
  586LIG     H1 8514   5.367   9.745   7.279
  586LIG     H2 8515   5.418   9.806   7.136
  586LIG     H3 8516   5.527   9.753   7.245
  586LIG     CA 8517   5.445   9.937   7.295
  586LIG     HA 8518   5.357   9.983   7.284
  586LIG     CB 8519   5.475   9.924   7.442
  586LIG    HB1 8520   5.563   9.877   7.454
  586LIG    HB2 8521   5.404   9.872   7.487
  586LIG     CG 8522   5.484  10.060   7.506
  586LIG    OD1 8523   5.606  10.118   7.499
  586LIG    OD2 8524   5.388  10.113   7.561
  586LIG      C 8525   5.556  10.021   7.225
  586LIG    OT1 8526   5.626   9.960   7.125
  586LIG    OT2 8527   5.574  10.149   7.269
  587LIG      N 8528   0.596   0.292   3.411
  587LIG     H1 8529   0.618   0.206   3.458
  587LIG     H2 8530   0.649   0.297   3.326
  587LIG     H3 8531   0.620   0.369   3.471
  587LIG     CA 8532   0.448   0.296   3.380
  587LIG     HA 8533   0.424   0.219   3.321
  587LIG     CB 8534   0.370   0.286   3.509
  587LIG    HB1 8535   0.395   0.362   3.570
  587LIG    HB2 8536   0.391   0.200   3.555
  587LIG     CG 8537   0.223   0.292   3.482
  587LIG    OD1 8538   0.171   0.417   3.475
  587LIG    OD2 8539   0.154   0.191   3.468
  587LIG      C 8540   0.413   0.429   3.307
  587LIG    OT1 8541   0.516   0.517   3.284
  587LIG    OT2 8542   0.283   0.448   3.272
  588LIG      N 8543   4.333   1.585   2.827
  588LIG     H1 8544   4.418   1.532   2.822
  588LIG     H2 8545   4.274   1.547   2.898
  588LIG     H3 8546   4.287   1.581   2.738
  588LIG     CA 8547   4.365   1.730   2.860
  588LIG     HA 8548   4.412   1.734   2.948
  588LIG     CB 8549   4.456   1.786   2.752
  588LIG    HB1 8550   4.410   1.779   2.663
  588LIG    HB2 8551   4.541   1.733   2.749
  588LIG     CG 8552   4.488   1.929   2.781
  588LIG    OD1 8553   4.398   2.018   2.733
  588LIG    OD2 8554   4.590   1.963   2.842
  588LIG      C 8555   4.234   1.812   2.866
  588LIG    OT1 8556   4.117   1.746   2.843
  588LIG    OT2 8557   4.246   1.945   2.895
  589LIG      N 8558   2.274   1.530   1.574
  589LIG     H1 8559   2.186   1.576   1.588
  589LIG     H2 8560   2.340   1.595   1.536
  589LIG     H3 8561   2.262   1.453   1.512
  589LIG     CA 8562   2.326   1.479   1.708
  589LIG     HA 8563   2.337   1.555   1.771
  589LIG     CB 8564   2.225   1.382   1.765
  589LIG    HB1 8565   2.211   1.306   1.701
  589LIG    HB2 8566   2.138   1.428   1.779
  589LIG     CG 8567   2.273   1.328   1.896
  589LIG    OD1 8568   2.353   1.219   1.887
  589LIG    OD2 8569   2.241   1.378   2.004
  589LIG      C 8570   2.462   1.407   1.688
  589LIG    OT1 8571   2.512   1.402   1.560
  589LIG    OT2 8572   2.522   1.355   1.798
  590LIG      N 8573   5.465   9.197   4.912
  590LIG     H1 8574   5.534   9.130   4.937
  590LIG     H2 8575   5.483   9.231   4.819
  590LIG     H3 8576   5.468   9.274   4.977
  590LIG     CA 8577   5.327   9.134   4.916
  590LIG     HA 8578   5.324   9.057   4.852
  590LIG     CB 8579   5.301   9.082   5.055
  590LIG    HB1 8580   5.307   9.158   5.121
  590LIG    HB2 8581   5.370   9.014   5.079
  590LIG     CG 8582   5.165   9.020   5.064
  590LIG    OD1 8583   5.065   9.106   5.091
  590LIG    OD2 8584   5.147   8.899   5.048
  590LIG      C 8585   5.219   9.238   4.877
  590LIG    OT1 8586   5.262   9.365   4.847
  590LIG    OT2 8587   5.089   9.196   4.876
  591LIG      N 8588   1.347   3.292   6.819
  591LIG     H1 8589   1.412   3.251   6.883
  591LIG     H2 8590   1.304   3.221   6.764
  591LIG     H3 8591   1.395   3.356   6.759
  591LIG     CA 8592   1.240   3.368   6.897
  591LIG     HA 8593   1.192   3.305   6.957
  591LIG     CB 8594   1.306   3.475   6.980
  591LIG    HB1 8595   1.357   3.537   6.920
  591LIG    HB2 8596   1.370   3.433   7.044
  591LIG     CG 8597   1.204   3.553   7.057
  591LIG    OD1 8598   1.149   3.656   6.990
  591LIG    OD2 8599   1.173   3.524   7.173
  591LIG      C 8600   1.139   3.433   6.798
  591LIG    OT1 8601   1.160   3.413   6.665
  591LIG    OT2 8602   1.037   3.504   6.853
  592LIG      N 8603   0.743   9.764   5.079
  592LIG     H1 8604   0.836   9.781   5.047
  592LIG     H2 8605   0.740   9.768   5.179
  592LIG     H3 8606   0.712   9.674   5.047
  592LIG     CA 8607   0.650   9.871   5.023
  592LIG     HA 8608   0.680   9.961   5.053
  592LIG     CB 8609   0.656   9.866   4.871
  592LIG    HB1 8610   0.628   9.774   4.840
  592LIG    HB2 8611   0.749   9.883   4.841
  592LIG     CG 8612   0.564   9.968   4.812
  592LIG    OD1 8613   0.436   9.927   4.796
  592LIG    OD2 8614   0.603  10.080   4.779
  592LIG      C 8615   0.504   9.845   5.071
  592LIG    OT1 8616   0.484   9.737   5.152
  592LIG    OT2 8617   0.409   9.932   5.028
  593LIG      N 8618   8.294   9.187   6.299
  593LIG     H1 8619   8.333   9.217   6.212
  593LIG     H2 8620   8.256   9.265   6.348
  593LIG     H3 8621   8.366   9.145   6.355
  593LIG     CA 8622   8.185   9.084   6.274
  593LIG     HA 8623   8.113   9.126   6.218
  593LIG     CB 8624   8.244   8.967   6.200
  593LIG    HB1 8625   8.318   8.926   6.254
  593LIG    HB2 8626   8.281   8.997   6.112
  593LIG     CG 8627   8.139   8.863   6.174
  593LIG    OD1 8628   8.121   8.774   6.275
  593LIG    OD2 8629   8.074   8.858   6.069
  593LIG      C 8630   8.125   9.037   6.409
  593LIG    OT1 8631   8.177   9.091   6.523
  593LIG    OT2 8632   8.025   8.944   6.403
  594LIG      N 8633   5.575   8.504   7.400
  594LIG     H1 8634   5.484   8.546   7.393
  594LIG     H2 8635   5.627   8.550   7.472
  594LIG     H3 8636   5.622   8.514   7.312
  594LIG     CA 8637   5.561   8.356   7.433
  594LIG     HA 8638   5.513   8.346   7.520
  594LIG     CB 8639   5.480   8.289   7.324
  594LIG    HB1 8640   5.526   8.301   7.236
  594LIG    HB2 8641   5.389   8.331   7.319
  594LIG     CG 8642   5.465   8.143   7.352
  594LIG    OD1 8643   5.567   8.066   7.307
  594LIG    OD2 8644   5.367   8.097   7.411
  594LIG      C 8645   5.701   8.291   7.443
  594LIG    OT1 8646   5.809   8.371   7.422
  594LIG    OT2 8647   5.705   8.158   7.472
  595LIG      N 8648   0.224   0.487   5.475
  595LIG     H1 8649   0.136   0.482   5.428
  595LIG     H2 8650   0.250   0.583   5.488
  595LIG     H3 8651   0.294   0.440   5.420
  595LIG     CA 8652   0.213   0.419   5.611
  595LIG     HA 8653   0.144   0.465   5.665
  595LIG     CB 8654   0.173   0.275   5.590
  595LIG    HB1 8655   0.242   0.228   5.533
  595LIG    HB2 8656   0.085   0.271   5.544
  595LIG     CG 8657   0.163   0.204   5.721
  595LIG    OD1 8658   0.279   0.152   5.767
  595LIG    OD2 8659   0.056   0.193   5.782
  595LIG      C 8660   0.350   0.426   5.684
  595LIG    OT1 8661   0.453   0.488   5.620
  595LIG    OT2 8662   0.356   0.369   5.808
  596LIG      N 8663   1.162   5.782   7.246
  596LIG     H1 8664   1.133   5.875   7.272
  596LIG     H2 8665   1.170   5.777   7.146
  596LIG     H3 8666   1.094   5.716   7.278
  596LIG     CA 8667   1.297   5.751   7.309
  596LIG     HA 8668   1.364   5.817   7.278
  596LIG     CB 8669   1.283   5.761   7.459
  596LIG    HB1 8670   1.213   5.696   7.491
  596LIG    HB2 8671   1.256   5.853   7.485
  596LIG     CG 8672   1.414   5.729   7.526
  596LIG    OD1 8673   1.435   5.597   7.548
  596LIG    OD2 8674   1.495   5.816   7.557
  596LIG      C 8675   1.342   5.608   7.269
  596LIG    OT1 8676   1.258   5.537   7.187
  596LIG    OT2 8677   1.461   5.565   7.318
  597LIG      N 8678   9.956   2.260   0.301
  597LIG     H1 8679   9.959   2.333   0.369
  597LIG     H2 8680   9.970   2.298   0.210
  597LIG     H3 8681   9.867   2.214   0.305
  597LIG     CA 8682  10.065   2.159   0.331
  597LIG     HA 8683  10.154   2.204   0.327
  597LIG     CB 8684  10.044   2.103   0.470
  597LIG    HB1 8685   9.953   2.059   0.475
  597LIG    HB2 8686  10.048   2.176   0.537
  597LIG     CG 8687  10.149   2.001   0.502
  597LIG    OD1 8688  10.121   1.876   0.461
  597LIG    OD2 8689  10.252   2.030   0.562
  597LIG      C 8690  10.061   2.044   0.226
  597LIG    OT1 8691   9.965   2.051   0.129
  597LIG    OT2 8692  10.153   1.944   0.240
  598LIG      N 8693   8.202   9.477   0.657
  598LIG     H1 8694   8.202   9.461   0.559
  598LIG     H2 8695   8.249   9.402   0.704
  598LIG     H3 8696   8.107   9.484   0.690
  598LIG     CA 8697   8.274   9.608   0.687
  598LIG     HA 8698   8.368   9.602   0.653
  598LIG     CB 8699   8.203   9.720   0.615
  598LIG    HB1 8700   8.107   9.725   0.646
  598LIG    HB2 8701   8.204   9.704   0.517
  598LIG     CG 8702   8.270   9.851   0.643
  598LIG    OD1 8703   8.228   9.914   0.756
  598LIG    OD2 8704   8.356   9.899   0.569
  598LIG      C 8705   8.274   9.635   0.840
  598LIG    OT1 8706   8.213   9.542   0.920
  598LIG    OT2 8707   8.335   9.749   0.882
  599LIG      N 8708   8.252   8.299   2.905
  599LIG     H1 8709   8.277   8.332   2.814
  599LIG     H2 8710   8.171   8.240   2.898
  599LIG     H3 8711   8.232   8.377   2.965
  599LIG     CA 8712   8.368   8.220   2.964
  599LIG     HA 8713   8.389   8.143   2.905
  599LIG     CB 8714   8.489   8.310   2.973
  599LIG    HB1 8715   8.468   8.390   3.030
  599LIG    HB2 8716   8.514   8.342   2.882
  599LIG     CG 8717   8.605   8.236   3.032
  599LIG    OD1 8718   8.610   8.238   3.167
  599LIG    OD2 8719   8.690   8.180   2.963
  599LIG      C 8720   8.330   8.168   3.106
  599LIG    OT1 8721   8.206   8.200   3.153
  599LIG    OT2 8722   8.424   8.096   3.172
  600LIG      N 8723   6.807   1.700   0.581
  600LIG     H1 8724   6.752   1.709   0.665
  600LIG     H2 8725   6.755   1.649   0.513
  600LIG     H3 8726   6.892   1.652   0.602
  600LIG     CA 8727   6.840   1.839   0.528
  600LIG     HA 8728   6.755   1.888   0.508
  600LIG     CB 8729   6.917   1.915   0.633
  600LIG    HB1 8730   7.001   1.865   0.656
  600LIG    HB2 8731   6.861   1.924   0.715
  600LIG     CG 8732   6.952   2.052   0.583
  600LIG    OD1 8733   7.067   2.058   0.512
  600LIG    OD2 8734   6.883   2.151   0.606
  600LIG      C 8735   6.925   1.827   0.398
  600LIG    OT1 8736   6.955   1.700   0.355
  600LIG    OT2 8737   6.962   1.943   0.338
  601LIG      N 8738   0.934   7.026   9.375
  601LIG     H1 8739   0.876   6.967   9.431
  601LIG     H2 8740   0.921   7.002   9.278
  601LIG     H3 8741   1.030   7.013   9.400
  601LIG     CA 8742   0.896   7.171   9.397
  601LIG     HA 8743   0.800   7.184   9.373
  601LIG     CB 8744   0.914   7.205   9.543
  601LIG    HB1 8745   1.010   7.189   9.570
  601LIG    HB2 8746   0.855   7.146   9.599
  601LIG     CG 8747   0.879   7.348   9.569
  601LIG    OD1 8748   0.979   7.436   9.549
  601LIG    OD2 8749   0.767   7.382   9.606
  601LIG      C 8750   0.985   7.263   9.310
  601LIG    OT1 8751   1.079   7.203   9.231
  601LIG    OT2 8752   0.963   7.397   9.319
  602LIG      N 8753   9.703   0.998   3.188
  602LIG     H1 8754   9.800   0.981   3.166
  602LIG     H2 8755   9.692   1.001   3.287
  602LIG     H3 8756   9.647   0.925   3.149
  602LIG     CA 8757   9.660   1.131   3.127
  602LIG     HA 8758   9.717   1.204   3.165
  602LIG     CB 8759   9.680   1.125   2.978
  602LIG    HB1 8760   9.626   1.050   2.939
  602LIG    HB2 8761   9.776   1.109   2.957
  602LIG     CG 8762   9.637   1.254   2.914
  602LIG    OD1 8763   9.506   1.262   2.884
  602LIG    OD2 8764   9.716   1.346   2.891
  602LIG      C 8765   9.511   1.158   3.160
  602LIG    OT1 8766   9.445   1.064   3.234
  602LIG    OT2 8767   9.457   1.274   3.113
  603LIG      N 8768   3.135   7.827   0.718
  603LIG     H1 8769   3.075   7.904   0.741
  603LIG     H2 8770   3.140   7.817   0.619
  603LIG     H3 8771   3.098   7.743   0.759
  603LIG     CA 8772   3.274   7.852   0.774
  603LIG     HA 8773   3.311   7.936   0.735
  603LIG     CB 8774   3.264   7.868   0.924
  603LIG    HB1 8775   3.224   7.786   0.965
  603LIG    HB2 8776   3.205   7.946   0.946
  603LIG     CG 8777   3.400   7.892   0.983
  603LIG    OD1 8778   3.469   7.779   1.013
  603LIG    OD2 8779   3.444   8.005   1.004
  603LIG      C 8780   3.367   7.733   0.740
  603LIG    OT1 8781   3.312   7.629   0.669
  603LIG    OT2 8782   3.496   7.740   0.784
  604LIG      N 8783   2.608   9.403   1.523
  604LIG     H1 8784   2.600   9.493   1.480
  604LIG     H2 8785   2.681   9.351   1.478
  604LIG     H3 8786   2.521   9.354   1.513
  604LIG     CA 8787   2.640   9.419   1.670
  604LIG     HA 8788   2.726   9.468   1.680
  604LIG     CB 8789   2.530   9.498   1.736
  604LIG    HB1 8790   2.442   9.451   1.724
  604LIG    HB2 8791   2.523   9.588   1.694
  604LIG     CG 8792   2.557   9.514   1.883
  604LIG    OD1 8793   2.513   9.413   1.960
  604LIG    OD2 8794   2.614   9.613   1.928
  604LIG      C 8795   2.652   9.279   1.737
  604LIG    OT1 8796   2.633   9.170   1.657
  604LIG    OT2 8797   2.680   9.276   1.870
  605LIG      N 8798   2.930   8.671   7.651
  605LIG     H1 8799   2.831   8.685   7.657
  605LIG     H2 8800   2.950   8.605   7.580
  605LIG     H3 8801   2.964   8.638   7.739
  605LIG     CA 8802   2.997   8.803   7.618
  605LIG     HA 8803   2.963   8.837   7.531
  605LIG     CB 8804   2.965   8.904   7.727
  605LIG    HB1 8805   2.997   8.869   7.815
  605LIG    HB2 8806   2.866   8.918   7.731
  605LIG     CG 8807   3.031   9.035   7.698
  605LIG    OD1 8808   3.158   9.045   7.744
  605LIG    OD2 8809   2.974   9.126   7.639
  605LIG      C 8810   3.151   8.783   7.609
  605LIG    OT1 8811   3.199   8.657   7.631
  605LIG    OT2 8812   3.226   8.893   7.580
  606LIG      N 8813   9.827   9.113   3.925
  606LIG     H1 8814   9.755   9.136   3.991
  606LIG     H2 8815   9.813   9.020   3.891
  606LIG     H3 8816   9.916   9.120   3.970
  606LIG     CA 8817   9.824   9.211   3.809
  606LIG     HA 8818   9.735   9.206   3.764
  606LIG     CB 8819   9.844   9.351   3.862
  606LIG    HB1 8820   9.932   9.357   3.910
  606LIG    HB2 8821   9.771   9.374   3.926
  606LIG     CG 8822   9.842   9.450   3.750
  606LIG    OD1 8823   9.962   9.469   3.689
  606LIG    OD2 8824   9.740   9.510   3.716
  606LIG      C 8825   9.936   9.176   3.707
  606LIG    OT1 8826  10.016   9.069   3.736
  606LIG    OT2 8827   9.945   9.255   3.596
  607LIG      N 8828   0.787   6.399   1.187
  607LIG     H1 8829   0.790   6.387   1.286
  607LIG     H2 8830   0.740   6.484   1.164
  607LIG     H3 8831   0.738   6.322   1.146
  607LIG     CA 8832   0.929   6.403   1.132
  607LIG     HA 8833   0.978   6.479   1.173
  607LIG     CB 8834   0.999   6.274   1.167
  607LIG    HB1 8835   0.948   6.196   1.129
  607LIG    HB2 8836   1.002   6.264   1.267
  607LIG     CG 8837   1.138   6.273   1.114
  607LIG    OD1 8838   1.150   6.230   0.986
  607LIG    OD2 8839   1.235   6.309   1.181
  607LIG      C 8840   0.925   6.420   0.977
  607LIG    OT1 8841   0.802   6.428   0.918
  607LIG    OT2 8842   1.045   6.425   0.913
  608LIG      N 8843   0.397   0.188   9.849
  608LIG     H1 8844   0.480   0.180   9.903
  608LIG     H2 8845   0.350   0.099   9.845
  608LIG     H3 8846   0.420   0.218   9.756
  608LIG     CA 8847   0.304   0.290   9.913
  608LIG     HA 8848   0.281   0.261  10.005
  608LIG     CB 8849   0.376   0.423   9.919
  608LIG    HB1 8850   0.401   0.452   9.826
  608LIG    HB2 8851   0.458   0.415   9.974
  608LIG     CG 8852   0.287   0.528   9.980
  608LIG    OD1 8853   0.205   0.590   9.893
  608LIG    OD2 8854   0.290   0.555  10.100
  608LIG      C 8855   0.174   0.304   9.829
  608LIG    OT1 8856   0.164   0.226   9.717
  608LIG    OT2 8857   0.081   0.393   9.873
  609LIG      N 8858   2.093   8.172   8.510
  609LIG     H1 8859   2.090   8.241   8.583
  609LIG     H2 8860   2.174   8.115   8.522
  609LIG     H3 8861   2.096   8.218   8.421
  609LIG     CA 8862   1.968   8.086   8.517
  609LIG     HA 8863   1.964   8.041   8.606
  609LIG     CB 8864   1.846   8.175   8.501
  609LIG    HB1 8865   1.851   8.223   8.413
  609LIG    HB2 8866   1.844   8.243   8.574
  609LIG     CG 8867   1.721   8.093   8.506
  609LIG    OD1 8868   1.683   8.041   8.388
  609LIG    OD2 8869   1.657   8.076   8.610
  609LIG      C 8870   1.970   7.979   8.405
  609LIG    OT1 8871   2.079   7.979   8.321
  609LIG    OT2 8872   1.865   7.894   8.398
  610LIG      N 8873   1.156   4.764   2.637
  610LIG     H1 8874   1.210   4.775   2.721
  610LIG     H2 8875   1.059   4.770   2.658
  610LIG     H3 8876   1.176   4.675   2.596
  610LIG     CA 8877   1.193   4.873   2.538
  610LIG     HA 8878   1.174   4.962   2.579
  610LIG     CB 8879   1.341   4.864   2.508
  610LIG    HB1 8880   1.362   4.773   2.469
  610LIG    HB2 8881   1.394   4.876   2.592
  610LIG     CG 8882   1.381   4.970   2.410
  610LIG    OD1 8883   1.365   4.936   2.280
  610LIG    OD2 8884   1.426   5.079   2.445
  610LIG      C 8885   1.111   4.857   2.407
  610LIG    OT1 8886   1.023   4.753   2.402
  610LIG    OT2 8887   1.133   4.948   2.309
  611LIG      N 8888   8.742   4.029   1.765
  611LIG     H1 8889   8.734   4.038   1.864
  611LIG     H2 8890   8.652   4.015   1.724
  611LIG     H3 8891   8.802   3.952   1.743
  611LIG     CA 8892   8.804   4.156   1.708
  611LIG     HA 8893   8.746   4.234   1.730
  611LIG     CB 8894   8.940   4.177   1.771
  611LIG    HB1 8895   8.998   4.098   1.752
  611LIG    HB2 8896   8.930   4.186   1.870
  611LIG     CG 8897   9.004   4.301   1.716
  611LIG    OD1 8898   9.074   4.282   1.602
  611LIG    OD2 8899   8.995   4.410   1.772
  611LIG      C 8900   8.818   4.144   1.554
  611LIG    OT1 8901   8.776   4.027   1.496
  611LIG    OT2 8902   8.872   4.250   1.488
  612LIG      N 8903   9.736   9.427   5.879
  612LIG     H1 8904   9.782   9.476   5.953
  612LIG     H2 8905   9.801   9.411   5.804
  612LIG     H3 8906   9.659   9.481   5.845
  612LIG     CA 8907   9.684   9.293   5.930
  612LIG     HA 8908   9.761   9.239   5.964
  612LIG     CB 8909   9.588   9.319   6.043
  612LIG    HB1 8910   9.512   9.376   6.010
  612LIG    HB2 8911   9.634   9.367   6.117
  612LIG     CG 8912   9.533   9.189   6.095
  612LIG    OD1 8913   9.425   9.143   6.029
  612LIG    OD2 8914   9.583   9.131   6.191
  612LIG      C 8915   9.613   9.217   5.815
  612LIG    OT1 8916   9.608   9.278   5.693
  612LIG    OT2 8917   9.561   9.095   5.845
  613LIG      N 8918   7.678   1.513   6.072
  613LIG     H1 8919   7.645   1.561   6.153
  613LIG     H2 8920   7.622   1.432   6.054
  613LIG     H3 8921   7.773   1.486   6.086
  613LIG     CA 8922   7.670   1.607   5.952
  613LIG     HA 8923   7.576   1.635   5.938
  613LIG     CB 8924   7.755   1.729   5.980
  613LIG    HB1 8925   7.850   1.701   5.997
  613LIG    HB2 8926   7.720   1.776   6.060
  613LIG     CG 8927   7.751   1.823   5.863
  613LIG    OD1 8928   7.842   1.797   5.767
  613LIG    OD2 8929   7.671   1.916   5.856
  613LIG      C 8930   7.723   1.534   5.825
  613LIG    OT1 8931   7.765   1.405   5.840
  613LIG    OT2 8932   7.722   1.605   5.708
  614LIG      N 8933   5.597   5.665   9.113
  614LIG     H1 8934   5.647   5.589   9.071
  614LIG     H2 8935   5.502   5.664   9.081
  614LIG     H3 8936   5.641   5.751   9.089
  614LIG     CA 8937   5.600   5.649   9.264
  614LIG     HA 8938   5.558   5.562   9.289
  614LIG     CB 8939   5.744   5.648   9.311
  614LIG    HB1 8940   5.789   5.734   9.284
  614LIG    HB2 8941   5.793   5.572   9.269
  614LIG     CG 8942   5.751   5.634   9.460
  614LIG    OD1 8943   5.742   5.750   9.528
  614LIG    OD2 8944   5.764   5.525   9.515
  614LIG      C 8945   5.524   5.766   9.332
  614LIG    OT1 8946   5.468   5.860   9.249
  614LIG    OT2 8947   5.517   5.766   9.468
  615LIG      N 8948   0.093   7.345   8.998
  615LIG     H1 8949   0.176   7.399   9.014
  615LIG     H2 8950   0.051   7.375   8.912
  615LIG     H3 8951   0.029   7.358   9.073
  615LIG     CA 8952   0.129   7.198   8.988
  615LIG     HA 8953   0.194   7.184   8.913
  615LIG     CB 8954   0.194   7.154   9.117
  615LIG    HB1 8955   0.131   7.170   9.193
  615LIG    HB2 8956   0.277   7.208   9.133
  615LIG     CG 8957   0.230   7.009   9.112
  615LIG    OD1 8958   0.131   6.925   9.148
  615LIG    OD2 8959   0.341   6.970   9.078
  615LIG      C 8960   0.001   7.113   8.962
  615LIG    OT1 8961  -0.117   7.181   8.953
  615LIG    OT2 8962   0.017   6.979   8.951
  616LIG      N 8963   7.242   7.697   0.468
  616LIG     H1 8964   7.224   7.785   0.425
  616LIG     H2 8965   7.288   7.636   0.404
  616LIG     H3 8966   7.155   7.655   0.497
  616LIG     CA 8967   7.330   7.718   0.590
  616LIG     HA 8968   7.416   7.760   0.562
  616LIG     CB 8969   7.259   7.810   0.687
  616LIG    HB1 8970   7.171   7.770   0.713
  616LIG    HB2 8971   7.242   7.898   0.643
  616LIG     CG 8972   7.343   7.832   0.809
  616LIG    OD1 8973   7.327   7.739   0.906
  616LIG    OD2 8974   7.419   7.928   0.821
  616LIG      C 8975   7.359   7.581   0.659
  616LIG    OT1 8976   7.303   7.470   0.603
  616LIG    OT2 8977   7.437   7.583   0.771
  617LIG      N 8978   9.601   2.558   9.269
  617LIG     H1 8979   9.515   2.609   9.267
  617LIG     H2 8980   9.609   2.510   9.357
  617LIG     H3 8981   9.677   2.622   9.259
  617LIG     CA 8982   9.604   2.457   9.156
  617LIG     HA 8983   9.528   2.394   9.165
  617LIG     CB 8984   9.591   2.531   9.024
  617LIG    HB1 8985   9.666   2.597   9.015
  617LIG    HB2 8986   9.504   2.580   9.022
  617LIG     CG 8987   9.595   2.435   8.910
  617LIG    OD1 8988   9.719   2.404   8.866
  617LIG    OD2 8989   9.493   2.388   8.859
  617LIG      C 8990   9.738   2.378   9.159
  617LIG    OT1 8991   9.827   2.410   9.258
  617LIG    OT2 8992   9.756   2.283   9.062
  618LIG      N 8993   7.373   9.335   2.477
  618LIG     H1 8994   7.326   9.249   2.455
  618LIG     H2 8995   7.435   9.320   2.554
  618LIG     H3 8996   7.305   9.405   2.500
  618LIG     CA 8997   7.453   9.382   2.356
  618LIG     HA 8998   7.520   9.313   2.331
  618LIG     CB 8999   7.358   9.402   2.240
  618LIG    HB1 9000   7.288   9.470   2.265
  618LIG    HB2 9001   7.312   9.316   2.218
  618LIG     CG 9002   7.432   9.450   2.119
  618LIG    OD1 9003   7.449   9.584   2.112
  618LIG    OD2 9004   7.474   9.373   2.032
  618LIG      C 9005   7.525   9.515   2.389
  618LIG    OT1 9006   7.507   9.567   2.514
  618LIG    OT2 9007   7.601   9.571   2.290
  619LIG      N 9008   0.932   4.504   2.798
  619LIG     H1 9009   1.014   4.474   2.749
  619LIG     H2 9010   0.854   4.450   2.768
  619LIG     H3 9011   0.916   4.601   2.778
  619LIG     CA 9012   0.952   4.487   2.948
  619LIG     HA 9013   0.970   4.391   2.968
  619LIG     CB 9014   1.072   4.569   2.991
  619LIG    HB1 9015   1.057   4.666   2.968
  619LIG    HB2 9016   1.154   4.537   2.943
  619LIG     CG 9017   1.094   4.556   3.138
  619LIG    OD1 9018   1.024   4.642   3.214
  619LIG    OD2 9019   1.172   4.473   3.186
  619LIG      C 9020   0.826   4.535   3.024
  619LIG    OT1 9021   0.722   4.582   2.949
  619LIG    OT2 9022   0.828   4.526   3.160
  620LIG      N 9023   5.301   0.127   5.194
  620LIG     H1 9024   5.247   0.141   5.277
  620LIG     H2 9025   5.374   0.061   5.213
  620LIG     H3 9026   5.341   0.214   5.165
  620LIG     CA 9027   5.212   0.074   5.083
  620LIG     HA 9028   5.172  -0.013   5.111
  620LIG     CB 9029   5.102   0.174   5.056
  620LIG    HB1 9030   5.142   0.262   5.030
  620LIG    HB2 9031   5.048   0.187   5.139
  620LIG     CG 9032   5.013   0.126   4.946
  620LIG    OD1 9033   5.055   0.158   4.821
  620LIG    OD2 9034   4.910   0.063   4.968
  620LIG      C 9035   5.296   0.052   4.954
  620LIG    OT1 9036   5.429   0.083   4.960
  620LIG    OT2 9037   5.230   0.005   4.844
  621LIG      N 9038   2.048   0.069   0.343
  621LIG     H1 9039   2.008   0.000   0.282
  621LIG     H2 9040   2.062   0.029   0.434
  621LIG     H3 9041   1.987   0.148   0.350
  621LIG     CA 9042   2.181   0.115   0.286
  621LIG     HA 9043   2.243   0.036   0.278
  621LIG     CB 9044   2.158   0.173   0.149
  621LIG    HB1 9045   2.095   0.251   0.155
  621LIG    HB2 9046   2.119   0.104   0.089
  621LIG     CG 9047   2.288   0.221   0.090
  621LIG    OD1 9048   2.322   0.347   0.124
  621LIG    OD2 9049   2.356   0.151   0.016
  621LIG      C 9050   2.245   0.222   0.379
  621LIG    OT1 9051   2.175   0.256   0.492
  621LIG    OT2 9052   2.365   0.273   0.342
  622LIG      N 9053   3.337   3.196   0.490
  622LIG     H1 9054   3.426   3.177   0.446
  622LIG     H2 9055   3.342   3.171   0.587
  622LIG     H3 9056   3.266   3.142   0.445
  622LIG     CA 9057   3.304   3.343   0.477
  622LIG     HA 9058   3.375   3.397   0.521
  622LIG     CB 9059   3.299   3.379   0.330
  622LIG    HB1 9060   3.230   3.324   0.284
  622LIG    HB2 9061   3.388   3.362   0.288
  622LIG     CG 9062   3.265   3.524   0.313
  622LIG    OD1 9063   3.133   3.552   0.311
  622LIG    OD2 9064   3.352   3.611   0.300
  622LIG      C 9065   3.167   3.373   0.543
  622LIG    OT1 9066   3.101   3.268   0.600
  622LIG    OT2 9067   3.123   3.502   0.540
  623LIG      N 9068   9.098   7.113   2.101
  623LIG     H1 9069   9.149   7.159   2.174
  623LIG     H2 9070   9.124   7.152   2.012
  623LIG     H3 9071   9.000   7.126   2.116
  623LIG     CA 9072   9.131   6.965   2.102
  623LIG     HA 9073   9.228   6.952   2.088
  623LIG     CB 9074   9.092   6.908   2.237
  623LIG    HB1 9075   8.994   6.923   2.253
  623LIG    HB2 9076   9.144   6.953   2.309
  623LIG     CG 9077   9.121   6.761   2.242
  623LIG    OD1 9078   9.022   6.682   2.194
  623LIG    OD2 9079   9.227   6.716   2.286
  623LIG      C 9080   9.052   6.893   1.990
  623LIG    OT1 9081   8.970   6.970   1.911
  623LIG    OT2 9082   9.070   6.758   1.978
  624LIG      N 9083   8.578   8.782   3.224
  624LIG     H1 9084   8.658   8.722   3.226
  624LIG     H2 9085   8.566   8.817   3.131
  624LIG     H3 9086   8.591   8.858   3.287
  624LIG     CA 9087   8.455   8.703   3.265
  624LIG     HA 9088   8.442   8.626   3.203
  624LIG     CB 9089   8.476   8.650   3.405
  624LIG    HB1 9090   8.492   8.726   3.468
  624LIG    HB2 9091   8.556   8.590   3.407
  624LIG     CG 9092   8.356   8.572   3.450
  624LIG    OD1 9093   8.258   8.647   3.506
  624LIG    OD2 9094   8.347   8.450   3.437
  624LIG      C 9095   8.330   8.795   3.262
  624LIG    OT1 9096   8.348   8.925   3.224
  624LIG    OT2 9097   8.211   8.738   3.296
  625LIG      N 9098   5.309   6.293  -0.009
  625LIG     H1 9099   5.286   6.391  -0.004
  625LIG     H2 9100   5.405   6.283  -0.036
  625LIG     H3 9101   5.250   6.249  -0.077
  625LIG     CA 9102   5.287   6.228   0.126
  625LIG     HA 9103   5.345   6.272   0.194
  625LIG     CB 9104   5.142   6.246   0.165
  625LIG    HB1 9105   5.083   6.204   0.096
  625LIG    HB2 9106   5.120   6.343   0.172
  625LIG     CG 9107   5.116   6.181   0.298
  625LIG    OD1 9108   5.085   6.050   0.292
  625LIG    OD2 9109   5.121   6.243   0.404
  625LIG      C 9110   5.321   6.077   0.118
  625LIG    OT1 9111   5.364   6.028  -0.003
  625LIG    OT2 9112   5.306   6.004   0.232
  626LIG      N 9113   7.812   5.438   1.704
  626LIG     H1 9114   7.716   5.434   1.732
  626LIG     H2 9115   7.822   5.501   1.626
  626LIG     H3 9116   7.844   5.347   1.679
  626LIG     CA 9117   7.896   5.490   1.821
  626LIG     HA 9118   7.863   5.581   1.847
  626LIG     CB 9119   7.879   5.396   1.938
  626LIG    HB1 9120   7.909   5.304   1.912
  626LIG    HB2 9121   7.783   5.392   1.965
  626LIG     CG 9122   7.961   5.443   2.054
  626LIG    OD1 9123   8.089   5.400   2.054
  626LIG    OD2 9124   7.915   5.514   2.143
  626LIG      C 9125   8.045   5.497   1.779
  626LIG    OT1 9126   8.077   5.459   1.652
  626LIG    OT2 9127   8.133   5.542   1.874
  627LIG      N 9128   6.120   2.707   9.475
  627LIG     H1 9129   6.035   2.758   9.489
  627LIG     H2 9130   6.108   2.641   9.401
  627LIG     H3 9131   6.145   2.660   9.559
  627LIG     CA 9132   6.231   2.805   9.438
  627LIG     HA 9133   6.206   2.853   9.354
  627LIG     CB 9134   6.247   2.905   9.550
  627LIG    HB1 9135   6.269   2.858   9.635
  627LIG    HB2 9136   6.161   2.956   9.562
  627LIG     CG 9137   6.356   3.003   9.517
  627LIG    OD1 9138   6.480   2.962   9.553
  627LIG    OD2 9139   6.334   3.111   9.464
  627LIG      C 9140   6.364   2.728   9.416
  627LIG    OT1 9141   6.361   2.592   9.433
  627LIG    OT2 9142   6.473   2.802   9.382
  628LIG      N 9143   3.495   1.763   6.870
  628LIG     H1 9144   3.547   1.683   6.899
  628LIG     H2 9145   3.558   1.840   6.856
  628LIG     H3 9146   3.427   1.787   6.939
  628LIG     CA 9147   3.424   1.733   6.739
  628LIG     HA 9148   3.491   1.708   6.669
  628LIG     CB 9149   3.330   1.616   6.761
  628LIG    HB1 9150   3.264   1.639   6.832
  628LIG    HB2 9151   3.383   1.536   6.789
  628LIG     CG 9152   3.257   1.583   6.634
  628LIG    OD1 9153   3.143   1.654   6.615
  628LIG    OD2 9154   3.297   1.498   6.555
  628LIG      C 9155   3.343   1.857   6.692
  628LIG    OT1 9156   3.349   1.968   6.771
  628LIG    OT2 9157   3.273   1.845   6.576
  629LIG      N 9158   5.957   1.549   1.159
  629LIG     H1 9159   5.957   1.544   1.259
  629LIG     H2 9160   5.876   1.598   1.128
  629LIG     H3 9161   5.957   1.456   1.122
  629LIG     CA 9162   6.082   1.621   1.112
  629LIG     HA 9163   6.083   1.713   1.150
  629LIG     CB 9164   6.204   1.546   1.160
  629LIG    HB1 9165   6.202   1.452   1.125
  629LIG    HB2 9166   6.204   1.543   1.260
  629LIG     CG 9167   6.329   1.614   1.114
  629LIG    OD1 9168   6.371   1.578   0.991
  629LIG    OD2 9169   6.389   1.696   1.183
  629LIG      C 9170   6.083   1.629   0.957
  629LIG    OT1 9171   5.977   1.572   0.891
  629LIG    OT2 9172   6.189   1.691   0.898
  630LIG      N 9173   1.279   5.982   8.178
  630LIG     H1 9174   1.181   5.966   8.193
  630LIG     H2 9175   1.324   5.896   8.157
  630LIG     H3 9176   1.319   6.022   8.261
  630LIG     CA 9177   1.297   6.079   8.062
  630LIG     HA 9178   1.256   6.040   7.980
  630LIG     CB 9179   1.227   6.209   8.095
  630LIG    HB1 9180   1.265   6.247   8.180
  630LIG    HB2 9181   1.130   6.192   8.109
  630LIG     CG 9182   1.244   6.307   7.984
  630LIG    OD1 9183   1.357   6.381   7.990
  630LIG    OD2 9184   1.161   6.320   7.894
  630LIG      C 9185   1.448   6.105   8.038
  630LIG    OT1 9186   1.537   6.041   8.121
  630LIG    OT2 9187   1.481   6.190   7.937
  631LIG      N 9188   8.660   1.135   6.058
  631LIG     H1 9189   8.700   1.218   6.020
  631LIG     H2 9190   8.732   1.072   6.085
  631LIG     H3 9191   8.601   1.091   5.990
  631LIG     CA 9192   8.576   1.171   6.180
  631LIG     HA 9193   8.634   1.215   6.248
  631LIG     CB 9194   8.467   1.267   6.138
  631LIG    HB1 9195   8.410   1.225   6.067
  631LIG    HB2 9196   8.508   1.350   6.100
  631LIG     CG 9197   8.382   1.304   6.255
  631LIG    OD1 9198   8.279   1.219   6.279
  631LIG    OD2 9199   8.402   1.404   6.323
  631LIG      C 9200   8.512   1.043   6.240
  631LIG    OT1 9201   8.540   0.924   6.178
  631LIG    OT2 9202   8.434   1.058   6.350
  632LIG      N 9203   4.057   0.536   2.763
  632LIG     H1 9204   4.034   0.441   2.785
  632LIG     H2 9205   4.155   0.542   2.741
  632LIG     H3 9206   4.036   0.595   2.841
  632LIG     CA 9207   3.976   0.581   2.642
  632LIG     HA 9208   3.996   0.522   2.564
  632LIG     CB 9209   3.829   0.570   2.676
  632LIG    HB1 9210   3.808   0.627   2.756
  632LIG    HB2 9211   3.807   0.475   2.697
  632LIG     CG 9212   3.745   0.615   2.560
  632LIG    OD1 9213   3.721   0.748   2.556
  632LIG    OD2 9214   3.701   0.537   2.476
  632LIG      C 9215   4.011   0.728   2.607
  632LIG    OT1 9216   4.104   0.791   2.685
  632LIG    OT2 9217   3.946   0.784   2.501
  633LIG      N 9218   0.006   5.547   7.884
  633LIG     H1 9219  -0.050   5.545   7.801
  633LIG     H2 9220  -0.051   5.577   7.961
  633LIG     H3 9221   0.082   5.611   7.872
  633LIG     CA 9222   0.061   5.408   7.913
  633LIG     HA 9223  -0.015   5.345   7.924
  633LIG     CB 9224   0.145   5.364   7.795
  633LIG    HB1 9225   0.220   5.429   7.781
  633LIG    HB2 9226   0.089   5.361   7.713
  633LIG     CG 9227   0.202   5.228   7.820
  633LIG    OD1 9228   0.319   5.227   7.888
  633LIG    OD2 9229   0.147   5.125   7.781
  633LIG      C 9230   0.147   5.411   8.041
  633LIG    OT1 9231   0.160   5.531   8.106
  633LIG    OT2 9232   0.204   5.293   8.080
  634LIG      N 9233   7.973   7.374   1.936
  634LIG     H1 9234   8.059   7.363   1.987
  634LIG     H2 9235   7.900   7.327   1.983
  634LIG     H3 9236   7.984   7.337   1.844
  634LIG     CA 9237   7.940   7.522   1.925
  634LIG     HA 9238   7.930   7.560   2.017
  634LIG     CB 9239   8.053   7.593   1.855
  634LIG    HB1 9240   8.066   7.554   1.763
  634LIG    HB2 9241   8.137   7.582   1.906
  634LIG     CG 9242   8.023   7.739   1.841
  634LIG    OD1 9243   7.950   7.772   1.732
  634LIG    OD2 9244   8.062   7.823   1.923
  634LIG      C 9245   7.808   7.541   1.846
  634LIG    OT1 9246   7.746   7.428   1.800
  634LIG    OT2 9247   7.764   7.669   1.828
  635LIG      N 9248   1.557   2.999   9.712
  635LIG     H1 9249   1.536   2.904   9.737
  635LIG     H2 9250   1.508   3.023   9.628
  635LIG     H3 9251   1.656   3.008   9.697
  635LIG     CA 9252   1.515   3.092   9.824
  635LIG     HA 9253   1.417   3.083   9.839
  635LIG     CB 9254   1.589   3.053   9.950
  635LIG    HB1 9255   1.688   3.060   9.934
  635LIG    HB2 9256   1.566   2.959   9.975
  635LIG     CG 9257   1.551   3.144  10.063
  635LIG    OD1 9258   1.623   3.258  10.071
  635LIG    OD2 9259   1.461   3.116  10.143
  635LIG      C 9260   1.548   3.239   9.786
  635LIG    OT1 9261   1.607   3.260   9.665
  635LIG    OT2 9262   1.516   3.335   9.877
  636LIG      N 9263   9.288   4.915   1.323
  636LIG     H1 9264   9.386   4.899   1.340
  636LIG     H2 9265   9.269   4.909   1.225
  636LIG     H3 9266   9.263   5.006   1.357
  636LIG     CA 9267   9.207   4.810   1.397
  636LIG     HA 9268   9.232   4.719   1.365
  636LIG     CB 9269   9.238   4.820   1.545
  636LIG    HB1 9270   9.215   4.912   1.578
  636LIG    HB2 9271   9.335   4.803   1.560
  636LIG     CG 9272   9.158   4.719   1.622
  636LIG    OD1 9273   9.034   4.760   1.658
  636LIG    OD2 9274   9.202   4.607   1.650
  636LIG      C 9275   9.055   4.834   1.373
  636LIG    OT1 9276   9.021   4.940   1.294
  636LIG    OT2 9277   8.968   4.748   1.433
  637LIG      N 9278   7.987   1.478   5.766
  637LIG     H1 9279   7.975   1.406   5.835
  637LIG     H2 9280   8.083   1.506   5.764
  637LIG     H3 9281   7.929   1.556   5.789
  637LIG     CA 9282   7.947   1.424   5.629
  637LIG     HA 9283   8.004   1.345   5.607
  637LIG     CB 9284   7.802   1.381   5.634
  637LIG    HB1 9285   7.745   1.459   5.660
  637LIG    HB2 9286   7.791   1.309   5.703
  637LIG     CG 9287   7.759   1.329   5.501
  637LIG    OD1 9288   7.714   1.423   5.415
  637LIG    OD2 9289   7.762   1.209   5.472
  637LIG      C 9290   7.965   1.534   5.522
  637LIG    OT1 9291   8.012   1.656   5.564
  637LIG    OT2 9292   7.934   1.502   5.393
  638LIG      N 9293   6.325   0.630   1.359
  638LIG     H1 9294   6.369   0.640   1.269
  638LIG     H2 9295   6.293   0.536   1.370
  638LIG     H3 9296   6.248   0.693   1.366
  638LIG     CA 9297   6.426   0.662   1.468
  638LIG     HA 9298   6.504   0.599   1.461
  638LIG     CB 9299   6.476   0.804   1.449
  638LIG    HB1 9300   6.398   0.867   1.453
  638LIG    HB2 9301   6.519   0.812   1.360
  638LIG     CG 9302   6.574   0.839   1.556
  638LIG    OD1 9303   6.520   0.887   1.670
  638LIG    OD2 9304   6.696   0.827   1.540
  638LIG      C 9305   6.360   0.647   1.608
  638LIG    OT1 9306   6.228   0.610   1.611
  638LIG    OT2 9307   6.438   0.673   1.716
  639LIG      N 9308   9.868   9.339   8.367
  639LIG     H1 9309   9.956   9.294   8.384
  639LIG     H2 9310   9.859   9.359   8.269
  639LIG     H3 9311   9.863   9.424   8.419
  639LIG     CA 9312   9.755   9.247   8.410
  639LIG     HA 9313   9.760   9.162   8.359
  639LIG     CB 9314   9.771   9.216   8.558
  639LIG    HB1 9315   9.769   9.302   8.610
  639LIG    HB2 9316   9.858   9.171   8.574
  639LIG     CG 9317   9.660   9.127   8.605
  639LIG    OD1 9318   9.548   9.191   8.643
  639LIG    OD2 9319   9.672   9.005   8.609
  639LIG      C 9320   9.618   9.315   8.385
  639LIG    OT1 9321   9.620   9.441   8.330
  639LIG    OT2 9322   9.507   9.245   8.419
  640LIG      N 9323   0.651   8.539   8.980
  640LIG     H1 9324   0.745   8.528   9.011
  640LIG     H2 9325   0.648   8.536   8.880
  640LIG     H3 9326   0.616   8.627   9.012
  640LIG     CA 9327   0.565   8.428   9.037
  640LIG     HA 9328   0.600   8.340   9.006
  640LIG     CB 9329   0.572   8.433   9.188
  640LIG    HB1 9330   0.540   8.522   9.220
  640LIG    HB2 9331   0.666   8.420   9.218
  640LIG     CG 9332   0.487   8.325   9.248
  640LIG    OD1 9333   0.357   8.358   9.265
  640LIG    OD2 9334   0.532   8.215   9.280
  640LIG      C 9335   0.418   8.445   8.990
  640LIG    OT1 9336   0.390   8.552   8.910
  640LIG    OT2 9337   0.328   8.353   9.033
  641LIG      N 9338   7.950   0.688   6.258
  641LIG     H1 9339   7.963   0.726   6.350
  641LIG     H2 9340   7.896   0.751   6.203
  641LIG     H3 9341   7.903   0.600   6.266
  641LIG     CA 9342   8.085   0.666   6.193
  641LIG     HA 9343   8.134   0.753   6.186
  641LIG     CB 9344   8.167   0.571   6.278
  641LIG    HB1 9345   8.118   0.484   6.288
  641LIG    HB2 9346   8.180   0.611   6.369
  641LIG     CG 9347   8.300   0.546   6.216
  641LIG    OD1 9348   8.303   0.446   6.125
  641LIG    OD2 9349   8.401   0.611   6.246
  641LIG      C 9350   8.066   0.606   6.051
  641LIG    OT1 9351   7.938   0.583   6.009
  641LIG    OT2 9352   8.179   0.580   5.979
  642LIG      N 9353   7.236   1.460   4.892
  642LIG     H1 9354   7.247   1.376   4.945
  642LIG     H2 9355   7.292   1.532   4.932
  642LIG     H3 9356   7.140   1.487   4.893
  642LIG     CA 9357   7.280   1.436   4.749
  642LIG     HA 9358   7.375   1.408   4.747
  642LIG     CB 9359   7.195   1.325   4.690
  642LIG    HB1 9360   7.098   1.351   4.693
  642LIG    HB2 9361   7.208   1.241   4.743
  642LIG     CG 9362   7.234   1.299   4.548
  642LIG    OD1 9363   7.172   1.378   4.457
  642LIG    OD2 9364   7.316   1.212   4.516
  642LIG      C 9365   7.262   1.565   4.665
  642LIG    OT1 9366   7.213   1.675   4.730
  642LIG    OT2 9367   7.297   1.560   4.534
  643LIG      N 9368   1.773   1.018   1.597
  643LIG     H1 9369   1.856   0.972   1.565
  643LIG     H2 9370   1.718   1.047   1.519
  643LIG     H3 9371   1.798   1.098   1.652
  643LIG     CA 9372   1.692   0.923   1.684
  643LIG     HA 9373   1.667   0.842   1.630
  643LIG     CB 9374   1.778   0.879   1.801
  643LIG    HB1 9375   1.805   0.960   1.854
  643LIG    HB2 9376   1.859   0.833   1.768
  643LIG     CG 9377   1.701   0.786   1.890
  643LIG    OD1 9378   1.625   0.847   1.984
  643LIG    OD2 9379   1.708   0.664   1.879
  643LIG      C 9380   1.564   0.993   1.735
  643LIG    OT1 9381   1.544   1.123   1.697
  643LIG    OT2 9382   1.481   0.920   1.815
  644LIG      N 9383   1.682   6.383   2.067
  644LIG     H1 9384   1.707   6.430   2.152
  644LIG     H2 9385   1.765   6.355   2.018
  644LIG     H3 9386   1.628   6.444   2.009
  644LIG     CA 9387   1.599   6.259   2.100
  644LIG     HA 9388   1.653   6.198   2.158
  644LIG     CB 9389   1.475   6.302   2.174
  644LIG    HB1 9390   1.422   6.366   2.118
  644LIG    HB2 9391   1.501   6.348   2.259
  644LIG     CG 9392   1.390   6.183   2.207
  644LIG    OD1 9393   1.304   6.146   2.110
  644LIG    OD2 9394   1.398   6.125   2.315
  644LIG      C 9395   1.560   6.186   1.969
  644LIG    OT1 9396   1.603   6.240   1.851
  644LIG    OT2 9397   1.485   6.073   1.982
  645LIG      N 9398   7.198   9.576   7.501
  645LIG     H1 9399   7.262   9.511   7.542
  645LIG     H2 9400   7.217   9.585   7.403
  645LIG     H3 9401   7.208   9.665   7.545
  645LIG     CA 9402   7.056   9.526   7.520
  645LIG     HA 9403   7.046   9.437   7.476
  645LIG     CB 9404   7.029   9.512   7.668
  645LIG    HB1 9405   7.041   9.601   7.713
  645LIG    HB2 9406   7.092   9.446   7.708
  645LIG     CG 9407   6.889   9.464   7.691
  645LIG    OD1 9408   6.795   9.561   7.696
  645LIG    OD2 9409   6.861   9.345   7.705
  645LIG      C 9410   6.955   9.626   7.457
  645LIG    OT1 9411   7.007   9.738   7.397
  645LIG    OT2 9412   6.823   9.595   7.466
  646LIG      N 9413   1.140   3.686   6.125
  646LIG     H1 9414   1.046   3.721   6.114
  646LIG     H2 9415   1.154   3.659   6.221
  646LIG     H3 9416   1.205   3.757   6.100
  646LIG     CA 9417   1.159   3.565   6.035
  646LIG     HA 9418   1.093   3.494   6.060
  646LIG     CB 9419   1.135   3.606   5.892
  646LIG    HB1 9420   1.199   3.679   5.867
  646LIG    HB2 9421   1.042   3.640   5.882
  646LIG     CG 9422   1.155   3.489   5.800
  646LIG    OD1 9423   1.283   3.470   5.760
  646LIG    OD2 9424   1.062   3.418   5.763
  646LIG      C 9425   1.303   3.509   6.051
  646LIG    OT1 9426   1.386   3.575   6.139
  646LIG    OT2 9427   1.337   3.400   5.977
  647LIG      N 9428   0.575   4.692   6.032
  647LIG     H1 9429   0.647   4.646   6.084
  647LIG     H2 9430   0.612   4.723   5.944
  647LIG     H3 9431   0.541   4.770   6.083
  647LIG     CA 9432   0.461   4.594   6.007
  647LIG     HA 9433   0.495   4.515   5.956
  647LIG     CB 9434   0.408   4.547   6.140
  647LIG    HB1 9435   0.376   4.626   6.193
  647LIG    HB2 9436   0.480   4.501   6.191
  647LIG     CG 9437   0.294   4.451   6.120
  647LIG    OD1 9438   0.173   4.510   6.106
  647LIG    OD2 9439   0.310   4.329   6.117
  647LIG      C 9440   0.348   4.664   5.926
  647LIG    OT1 9441   0.368   4.795   5.892
  647LIG    OT2 9442   0.239   4.589   5.896
  648LIG      N 9443   4.872   8.833   9.739
  648LIG     H1 9444   4.897   8.929   9.724
  648LIG     H2 9445   4.921   8.798   9.818
  648LIG     H3 9446   4.896   8.780   9.658
  648LIG     CA 9447   4.722   8.823   9.763
  648LIG     HA 9448   4.698   8.876   9.843
  648LIG     CB 9449   4.649   8.878   9.642
  648LIG    HB1 9450   4.676   8.826   9.560
  648LIG    HB2 9451   4.674   8.973   9.629
  648LIG     CG 9452   4.501   8.868   9.662
  648LIG    OD1 9453   4.447   8.750   9.625
  648LIG    OD2 9454   4.434   8.961   9.707
  648LIG      C 9455   4.682   8.674   9.785
  648LIG    OT1 9456   4.783   8.581   9.780
  648LIG    OT2 9457   4.551   8.648   9.808
  649LIG      N 9458   4.276   8.464   9.287
  649LIG     H1 9459   4.184   8.487   9.254
  649LIG     H2 9460   4.277   8.469   9.387
  649LIG     H3 9461   4.342   8.530   9.250
  649LIG     CA 9462   4.314   8.324   9.242
  649LIG     HA 9463   4.248   8.259   9.279
  649LIG     CB 9464   4.310   8.319   9.091
  649LIG    HB1 9465   4.374   8.387   9.053
  649LIG    HB2 9466   4.218   8.340   9.059
  649LIG     CG 9467   4.348   8.183   9.043
  649LIG    OD1 9468   4.481   8.163   9.028
  649LIG    OD2 9469   4.265   8.096   9.018
  649LIG      C 9470   4.456   8.289   9.293
  649LIG    OT1 9471   4.522   8.384   9.366
  649LIG    OT2 9472   4.505   8.166   9.260
  650LIG      N 9473   5.680   8.069   7.104
  650LIG     H1 9474   5.672   7.987   7.161
  650LIG     H2 9475   5.770   8.070   7.059
  650LIG     H3 9476   5.669   8.151   7.160
  650LIG     CA 9477   5.571   8.067   6.998
  650LIG     HA 9478   5.580   7.985   6.942
  650LIG     CB 9479   5.436   8.064   7.067
  650LIG    HB1 9480   5.427   8.145   7.126
  650LIG    HB2 9481   5.429   7.982   7.123
  650LIG     CG 9482   5.326   8.063   6.966
  650LIG    OD1 9483   5.287   8.186   6.923
  650LIG    OD2 9484   5.273   7.959   6.925
  650LIG      C 9485   5.582   8.193   6.908
  650LIG    OT1 9486   5.682   8.281   6.936
  650LIG    OT2 9487   5.490   8.206   6.808
  651LIG      N 9488   5.835   0.334   2.615
  651LIG     H1 9489   5.838   0.279   2.531
  651LIG     H2 9490   5.879   0.284   2.689
  651LIG     H3 9491   5.740   0.353   2.639
  651LIG     CA 9492   5.908   0.465   2.591
  651LIG     HA 9493   6.003   0.447   2.566
  651LIG     CB 9494   5.841   0.539   2.478
  651LIG    HB1 9495   5.744   0.556   2.501
  651LIG    HB2 9496   5.845   0.484   2.395
  651LIG     CG 9497   5.909   0.670   2.453
  651LIG    OD1 9498   5.864   0.773   2.529
  651LIG    OD2 9499   5.998   0.683   2.369
  651LIG      C 9500   5.904   0.552   2.720
  651LIG    OT1 9501   5.839   0.499   2.829
  651LIG    OT2 9502   5.965   0.673   2.715
  652LIG      N 9503  -0.018   3.389   7.675
  652LIG     H1 9504  -0.008   3.424   7.768
  652LIG     H2 9505  -0.095   3.435   7.630
  652LIG     H3 9506  -0.035   3.290   7.679
  652LIG     CA 9507   0.109   3.415   7.596
  652LIG     HA 9508   0.127   3.513   7.593
  652LIG     CB 9509   0.225   3.346   7.666
  652LIG    HB1 9510   0.206   3.248   7.673
  652LIG    HB2 9511   0.235   3.383   7.758
  652LIG     CG 9512   0.352   3.368   7.591
  652LIG    OD1 9513   0.375   3.279   7.492
  652LIG    OD2 9514   0.430   3.460   7.617
  652LIG      C 9515   0.094   3.359   7.452
  652LIG    OT1 9516  -0.024   3.299   7.420
  652LIG    OT2 9517   0.201   3.374   7.369
  653LIG      N 9518   6.642   1.163   6.476
  653LIG     H1 9519   6.651   1.158   6.576
  653LIG     H2 9520   6.646   1.071   6.437
  653LIG     H3 9521   6.716   1.219   6.438
  653LIG     CA 9522   6.509   1.228   6.441
  653LIG     HA 9523   6.434   1.173   6.479
  653LIG     CB 9524   6.504   1.367   6.501
  653LIG    HB1 9525   6.580   1.421   6.465
  653LIG    HB2 9526   6.513   1.361   6.600
  653LIG     CG 9527   6.375   1.434   6.467
  653LIG    OD1 9528   6.374   1.499   6.348
  653LIG    OD2 9529   6.277   1.431   6.542
  653LIG      C 9530   6.494   1.237   6.286
  653LIG    OT1 9531   6.596   1.188   6.211
  653LIG    OT2 9532   6.379   1.292   6.239
  654LIG      N 9533   9.939   0.025   1.137
  654LIG     H1 9534   9.925   0.082   1.056
  654LIG     H2 9535   9.949  -0.070   1.110
  654LIG     H3 9536   9.860   0.034   1.198
  654LIG     CA 9537  10.063   0.071   1.211
  654LIG     HA 9538  10.142   0.063   1.150
  654LIG     CB 9539  10.046   0.216   1.251
  654LIG    HB1 9540   9.965   0.225   1.310
  654LIG    HB2 9541  10.033   0.272   1.170
  654LIG     CG 9542  10.167   0.264   1.325
  654LIG    OD1 9543  10.165   0.240   1.458
  654LIG    OD2 9544  10.260   0.322   1.269
  654LIG      C 9545  10.086  -0.016   1.337
  654LIG    OT1 9546   9.995  -0.116   1.361
  654LIG    OT2 9547  10.194   0.013   1.414
  655LIG      N 9548   5.235   1.241   7.657
  655LIG     H1 9549   5.191   1.328   7.635
  655LIG     H2 9550   5.202   1.208   7.745
  655LIG     H3 9551   5.334   1.254   7.661
  655LIG     CA 9552   5.202   1.139   7.549
  655LIG     HA 9553   5.103   1.127   7.545
  655LIG     CB 9554   5.251   1.191   7.416
  655LIG    HB1 9555   5.350   1.206   7.420
  655LIG    HB2 9556   5.206   1.277   7.395
  655LIG     CG 9557   5.222   1.092   7.307
  655LIG    OD1 9558   5.315   0.996   7.290
  655LIG    OD2 9559   5.120   1.099   7.238
  655LIG      C 9560   5.270   1.003   7.582
  655LIG    OT1 9561   5.345   0.997   7.696
  655LIG    OT2 9562   5.250   0.901   7.494
  656LIG      N 9563   0.152   8.274   2.074
  656LIG     H1 9564   0.074   8.314   2.028
  656LIG     H2 9565   0.145   8.289   2.173
  656LIG     H3 9566   0.237   8.316   2.040
  656LIG     CA 9567   0.156   8.124   2.047
  656LIG     HA 9568   0.072   8.082   2.080
  656LIG     CB 9569   0.166   8.103   1.897
  656LIG    HB1 9570   0.249   8.147   1.862
  656LIG    HB2 9571   0.087   8.142   1.852
  656LIG     CG 9572   0.172   7.956   1.866
  656LIG    OD1 9573   0.295   7.902   1.870
  656LIG    OD2 9574   0.071   7.891   1.839
  656LIG      C 9575   0.278   8.060   2.118
  656LIG    OT1 9576   0.359   8.144   2.190
  656LIG    OT2 9577   0.296   7.926   2.103
  657LIG      N 9578   0.074   0.039   4.268
  657LIG     H1 9579   0.082  -0.054   4.230
  657LIG     H2 9580   0.089   0.035   4.367
  657LIG     H3 9581  -0.017   0.075   4.249
  657LIG     CA 9582   0.178   0.129   4.205
  657LIG     HA 9583   0.269   0.094   4.223
  657LIG     CB 9584   0.156   0.132   4.055
  657LIG    HB1 9585   0.063   0.166   4.036
  657LIG    HB2 9586   0.165   0.040   4.018
  657LIG     CG 9587   0.256   0.222   3.989
  657LIG    OD1 9588   0.220   0.352   3.984
  657LIG    OD2 9589   0.361   0.180   3.942
  657LIG      C 9590   0.166   0.273   4.263
  657LIG    OT1 9591   0.069   0.294   4.357
  657LIG    OT2 9592   0.253   0.367   4.215
  658LIG      N 9593   6.760   9.859   2.647
  658LIG     H1 9594   6.693   9.925   2.683
  658LIG     H2 9595   6.712   9.784   2.603
  658LIG     H3 9596   6.816   9.825   2.723
  658LIG     CA 9597   6.851   9.929   2.547
  658LIG     HA 9598   6.795   9.964   2.472
  658LIG     CB 9599   6.921  10.044   2.615
  658LIG    HB1 9600   6.974  10.009   2.693
  658LIG    HB2 9601   6.853  10.109   2.649
  658LIG     CG 9602   7.012  10.114   2.519
  658LIG    OD1 9603   7.136  10.061   2.509
  658LIG    OD2 9604   6.977  10.213   2.455
  658LIG      C 9605   6.955   9.828   2.491
  658LIG    OT1 9606   6.950   9.700   2.539
  658LIG    OT2 9607   7.044   9.876   2.400
  659LIG      N 9608   0.920   4.402   5.597
  659LIG     H1 9609   0.959   4.413   5.689
  659LIG     H2 9610   0.836   4.347   5.603
  659LIG     H3 9611   0.986   4.357   5.538
  659LIG     CA 9612   0.886   4.539   5.540
  659LIG     HA 9613   0.821   4.585   5.600
  659LIG     CB 9614   1.013   4.622   5.534
  659LIG    HB1 9615   1.081   4.575   5.476
  659LIG    HB2 9616   1.051   4.633   5.625
  659LIG     CG 9617   0.984   4.757   5.476
  659LIG    OD1 9618   0.988   4.763   5.341
  659LIG    OD2 9619   0.960   4.855   5.547
  659LIG      C 9620   0.826   4.524   5.398
  659LIG    OT1 9621   0.813   4.397   5.349
  659LIG    OT2 9622   0.791   4.638   5.333
  660LIG      N 9623   2.056   0.341   4.788
  660LIG     H1 9624   1.965   0.355   4.826
  660LIG     H2 9625   2.122   0.327   4.862
  660LIG     H3 9626   2.082   0.421   4.734
  660LIG     CA 9627   2.055   0.218   4.699
  660LIG     HA 9628   2.028   0.138   4.752
  660LIG     CB 9629   1.954   0.239   4.588
  660LIG    HB1 9630   1.979   0.321   4.535
  660LIG    HB2 9631   1.863   0.253   4.627
  660LIG     CG 9632   1.951   0.121   4.497
  660LIG    OD1 9633   2.042   0.123   4.397
  660LIG    OD2 9634   1.870   0.028   4.511
  660LIG      C 9635   2.196   0.195   4.638
  660LIG    OT1 9636   2.294   0.284   4.672
  660LIG    OT2 9637   2.211   0.088   4.555
  661LIG      N 9638   2.795   5.587   9.620
  661LIG     H1 9639   2.802   5.506   9.562
  661LIG     H2 9640   2.716   5.578   9.680
  661LIG     H3 9641   2.784   5.668   9.562
  661LIG     CA 9642   2.921   5.602   9.703
  661LIG     HA 9643   2.933   5.521   9.760
  661LIG     CB 9644   3.040   5.615   9.610
  661LIG    HB1 9645   3.027   5.694   9.550
  661LIG    HB2 9646   3.047   5.533   9.554
  661LIG     CG 9647   3.166   5.631   9.689
  661LIG    OD1 9648   3.195   5.759   9.723
  661LIG    OD2 9649   3.238   5.536   9.719
  661LIG      C 9650   2.911   5.729   9.793
  661LIG    OT1 9651   2.796   5.802   9.783
  661LIG    OT2 9652   3.017   5.756   9.874
  662LIG      N 9653   1.785   8.281   0.320
  662LIG     H1 9654   1.746   8.226   0.246
  662LIG     H2 9655   1.711   8.324   0.372
  662LIG     H3 9656   1.846   8.351   0.282
  662LIG     CA 9657   1.866   8.191   0.413
  662LIG     HA 9658   1.806   8.120   0.451
  662LIG     CB 9659   1.976   8.125   0.333
  662LIG    HB1 9660   2.035   8.195   0.292
  662LIG    HB2 9661   1.936   8.070   0.260
  662LIG     CG 9662   2.058   8.036   0.422
  662LIG    OD1 9663   2.159   8.099   0.486
  662LIG    OD2 9664   2.036   7.916   0.434
  662LIG      C 9665   1.927   8.275   0.528
  662LIG    OT1 9666   1.900   8.409   0.529
  662LIG    OT2 9667   2.002   8.208   0.620
  663LIG      N 9668   9.842   9.590   2.898
  663LIG     H1 9669   9.797   9.501   2.889
  663LIG     H2 9670   9.777   9.663   2.877
  663LIG     H3 9671   9.920   9.595   2.835
  663LIG     CA 9672   9.893   9.608   3.040
  663LIG     HA 9673   9.817   9.602   3.104
  663LIG     CB 9674   9.991   9.496   3.071
  663LIG    HB1 9675  10.067   9.499   3.006
  663LIG    HB2 9676   9.945   9.408   3.063
  663LIG     CG 9677  10.045   9.511   3.210
  663LIG    OD1 9678  10.152   9.591   3.221
  663LIG    OD2 9679   9.994   9.453   3.307
  663LIG      C 9680   9.964   9.745   3.055
  663LIG    OT1 9681   9.969   9.825   2.944
  663LIG    OT2 9682  10.015   9.776   3.177
  664LIG      N 9683   6.839   0.103   8.546
  664LIG     H1 9684   6.769   0.051   8.596
  664LIG     H2 9685   6.865   0.052   8.463
  664LIG     H3 9686   6.919   0.116   8.604
  664LIG     CA 9687   6.782   0.238   8.506
  664LIG     HA 9688   6.702   0.225   8.449
  664LIG     CB 9689   6.742   0.312   8.632
  664LIG    HB1 9690   6.821   0.323   8.692
  664LIG    HB2 9691   6.672   0.260   8.681
  664LIG     CG 9692   6.687   0.447   8.597
  664LIG    OD1 9693   6.780   0.545   8.585
  664LIG    OD2 9694   6.566   0.468   8.583
  664LIG      C 9695   6.889   0.320   8.429
  664LIG    OT1 9696   7.011   0.261   8.410
  664LIG    OT2 9697   6.854   0.445   8.387
  665LIG      N 9698   0.206   8.913   1.120
  665LIG     H1 9699   0.270   8.955   1.184
  665LIG     H2 9700   0.179   8.823   1.154
  665LIG     H3 9701   0.250   8.903   1.030
  665LIG     CA 9702   0.083   9.001   1.105
  665LIG     HA 9703   0.039   9.011   1.194
  665LIG     CB 9704   0.125   9.137   1.054
  665LIG    HB1 9705   0.172   9.127   0.966
  665LIG    HB2 9706   0.188   9.178   1.120
  665LIG     CG 9707   0.006   9.226   1.037
  665LIG    OD1 9708  -0.056   9.215   0.918
  665LIG    OD2 9709  -0.031   9.304   1.125
  665LIG      C 9710  -0.017   8.936   1.005
  665LIG    OT1 9711   0.020   8.817   0.949
  665LIG    OT2 9712  -0.133   9.003   0.981
  666LIG      N 9713   5.069   9.413   6.037
  666LIG     H1 9714   5.148   9.464   6.004
  666LIG     H2 9715   5.066   9.417   6.137
  666LIG     H3 9716   5.077   9.317   6.007
  666LIG     CA 9717   4.942   9.472   5.980
  666LIG     HA 9718   4.934   9.567   6.009
  666LIG     CB 9719   4.949   9.467   5.829
  666LIG    HB1 9720   4.959   9.371   5.799
  666LIG    HB2 9721   5.027   9.519   5.797
  666LIG     CG 9722   4.824   9.524   5.769
  666LIG    OD1 9723   4.722   9.435   5.755
  666LIG    OD2 9724   4.815   9.641   5.734
  666LIG      C 9725   4.818   9.392   6.030
  666LIG    OT1 9726   4.842   9.286   6.114
  666LIG    OT2 9727   4.696   9.434   5.987
  667LIG      N 9728   9.157   2.400   2.431
  667LIG     H1 9729   9.115   2.440   2.513
  667LIG     H2 9730   9.252   2.377   2.450
  667LIG     H3 9731   9.153   2.466   2.356
  667LIG     CA 9732   9.081   2.275   2.391
  667LIG     HA 9733   9.084   2.209   2.465
  667LIG     CB 9734   8.937   2.312   2.364
  667LIG    HB1 9735   8.932   2.380   2.291
  667LIG    HB2 9736   8.896   2.350   2.446
  667LIG     CG 9737   8.859   2.191   2.323
  667LIG    OD1 9738   8.863   2.162   2.190
  667LIG    OD2 9739   8.795   2.123   2.403
  667LIG      C 9740   9.144   2.213   2.263
  667LIG    OT1 9741   9.253   2.277   2.210
  667LIG    OT2 9742   9.087   2.099   2.215
  668LIG      N 9743   0.385   7.573   1.831
  668LIG     H1 9744   0.381   7.672   1.816
  668LIG     H2 9745   0.481   7.543   1.828
  668LIG     H3 9746   0.333   7.527   1.759
  668LIG     CA 9747   0.325   7.540   1.966
  668LIG     HA 9748   0.376   7.586   2.038
  668LIG     CB 9749   0.181   7.588   1.969
  668LIG    HB1 9750   0.130   7.543   1.895
  668LIG    HB2 9751   0.179   7.686   1.955
  668LIG     CG 9752   0.118   7.555   2.100
  668LIG    OD1 9753   0.064   7.431   2.108
  668LIG    OD2 9754   0.115   7.635   2.194
  668LIG      C 9755   0.330   7.386   1.990
  668LIG    OT1 9756   0.385   7.309   1.891
  668LIG    OT2 9757   0.279   7.340   2.108
  669LIG      N 9758   7.505   6.719   0.861
  669LIG     H1 9759   7.567   6.746   0.934
  669LIG     H2 9760   7.451   6.798   0.832
  669LIG     H3 9761   7.443   6.647   0.895
  669LIG     CA 9762   7.585   6.665   0.743
  669LIG     HA 9763   7.647   6.735   0.710
  669LIG     CB 9764   7.666   6.546   0.790
  669LIG    HB1 9765   7.604   6.475   0.826
  669LIG    HB2 9766   7.729   6.574   0.862
  669LIG     CG 9767   7.745   6.489   0.676
  669LIG    OD1 9768   7.679   6.398   0.601
  669LIG    OD2 9769   7.861   6.522   0.654
  669LIG      C 9770   7.488   6.622   0.629
  669LIG    OT1 9771   7.354   6.638   0.651
  669LIG    OT2 9772   7.545   6.571   0.516
  670LIG      N 9773   0.554   9.394   4.830
  670LIG     H1 9774   0.610   9.453   4.887
  670LIG     H2 9775   0.608   9.360   4.753
  670LIG     H3 9776   0.475   9.445   4.796
  670LIG     CA 9777   0.504   9.276   4.913
  670LIG     HA 9778   0.582   9.225   4.948
  670LIG     CB 9779   0.424   9.329   5.030
  670LIG    HB1 9780   0.347   9.383   4.996
  670LIG    HB2 9781   0.482   9.388   5.087
  670LIG     CG 9782   0.372   9.216   5.113
  670LIG    OD1 9783   0.255   9.164   5.072
  670LIG    OD2 9784   0.432   9.174   5.212
  670LIG      C 9785   0.415   9.183   4.826
  670LIG    OT1 9786   0.397   9.220   4.695
  670LIG    OT2 9787   0.363   9.073   4.886
  671LIG      N 9788   2.244   2.774   0.876
  671LIG     H1 9789   2.269   2.683   0.908
  671LIG     H2 9790   2.308   2.842   0.912
  671LIG     H3 9791   2.151   2.796   0.908
  671LIG     CA 9792   2.246   2.777   0.724
  671LIG     HA 9793   2.338   2.754   0.692
  671LIG     CB 9794   2.149   2.673   0.672
  671LIG    HB1 9795   2.057   2.693   0.706
  671LIG    HB2 9796   2.176   2.583   0.704
  671LIG     CG 9797   2.147   2.674   0.522
  671LIG    OD1 9798   2.062   2.763   0.467
  671LIG    OD2 9799   2.217   2.598   0.455
  671LIG      C 9800   2.206   2.918   0.673
  671LIG    OT1 9801   2.176   3.012   0.767
  671LIG    OT2 9802   2.203   2.936   0.538
  672LIG      N 9803   5.090   0.937   5.072
  672LIG     H1 9804   5.182   0.973   5.085
  672LIG     H2 9805   5.071   0.927   4.974
  672LIG     H3 9806   5.024   1.000   5.112
  672LIG     CA 9807   5.078   0.802   5.140
  672LIG     HA 9808   5.145   0.739   5.100
  672LIG     CB 9809   5.108   0.818   5.287
  672LIG    HB1 9810   5.043   0.884   5.327
  672LIG    HB2 9811   5.200   0.853   5.299
  672LIG     CG 9812   5.095   0.687   5.358
  672LIG    OD1 9813   4.971   0.656   5.399
  672LIG    OD2 9814   5.192   0.613   5.377
  672LIG      C 9815   4.935   0.745   5.120
  672LIG    OT1 9816   4.846   0.822   5.049
  672LIG    OT2 9817   4.908   0.624   5.176
  673LIG      N 9818   0.664   4.524   9.688
  673LIG     H1 9819   0.669   4.499   9.785
  673LIG     H2 9820   0.734   4.593   9.667
  673LIG     H3 9821   0.573   4.560   9.667
  673LIG     CA 9822   0.689   4.400   9.603
  673LIG     HA 9823   0.779   4.363   9.623
  673LIG     CB 9824   0.584   4.296   9.636
  673LIG    HB1 9825   0.493   4.333   9.618
  673LIG    HB2 9826   0.591   4.272   9.733
  673LIG     CG 9827   0.604   4.173   9.553
  673LIG    OD1 9828   0.545   4.176   9.432
  673LIG    OD2 9829   0.669   4.077   9.593
  673LIG      C 9830   0.681   4.437   9.452
  673LIG    OT1 9831   0.654   4.567   9.421
  673LIG    OT2 9832   0.700   4.336   9.363
  674LIG      N 9833   0.154   0.576   6.623
  674LIG     H1 9834   0.086   0.588   6.695
  674LIG     H2 9835   0.161   0.479   6.598
  674LIG     H3 9836   0.243   0.609   6.655
  674LIG     CA 9837   0.113   0.657   6.501
  674LIG     HA 9838   0.024   0.625   6.469
  674LIG     CB 9839   0.102   0.802   6.540
  674LIG    HB1 9840   0.190   0.835   6.575
  674LIG    HB2 9841   0.033   0.813   6.611
  674LIG     CG 9842   0.062   0.885   6.422
  674LIG    OD1 9843   0.165   0.926   6.344
  674LIG    OD2 9844  -0.055   0.914   6.397
  674LIG      C 9845   0.218   0.640   6.388
  674LIG    OT1 9846   0.325   0.560   6.414
  674LIG    OT2 9847   0.194   0.706   6.271
  675LIG      N 9848   3.924   0.814   9.691
  675LIG     H1 9849   3.860   0.759   9.745
  675LIG     H2 9850   3.873   0.865   9.622
  675LIG     H3 9851   3.991   0.754   9.647
  675LIG     CA 9852   3.997   0.910   9.783
  675LIG     HA 9853   3.931   0.970   9.828
  675LIG     CB 9854   4.072   0.831   9.888
  675LIG    HB1 9855   4.137   0.769   9.843
  675LIG    HB2 9856   4.007   0.777   9.942
  675LIG     CG 9857   4.146   0.923   9.980
  675LIG    OD1 9858   4.269   0.958   9.937
  675LIG    OD2 9859   4.099   0.963  10.086
  675LIG      C 9860   4.097   0.996   9.701
  675LIG    OT1 9861   4.103   0.973   9.566
  675LIG    OT2 9862   4.170   1.088   9.769
  676LIG      N 9863   8.753   1.579   2.180
  676LIG     H1 9864   8.774   1.643   2.105
  676LIG     H2 9865   8.756   1.629   2.267
  676LIG     H3 9866   8.821   1.505   2.181
  676LIG     CA 9867   8.615   1.520   2.160
  676LIG     HA 9868   8.547   1.594   2.159
  676LIG     CB 9869   8.611   1.447   2.028
  676LIG    HB1 9870   8.681   1.375   2.027
  676LIG    HB2 9871   8.631   1.511   1.954
  676LIG     CG 9872   8.476   1.386   2.005
  676LIG    OD1 9873   8.460   1.263   2.059
  676LIG    OD2 9874   8.388   1.444   1.941
  676LIG      C 9875   8.582   1.422   2.276
  676LIG    OT1 9876   8.677   1.404   2.372
  676LIG    OT2 9877   8.460   1.360   2.272
  677LIG      N 9878   0.449   6.401  -0.014
  677LIG     H1 9879   0.464   6.499  -0.028
  677LIG     H2 9880   0.499   6.349  -0.083
  677LIG     H3 9881   0.351   6.381  -0.021
  677LIG     CA 9882   0.498   6.361   0.124
  677LIG     HA 9883   0.596   6.382   0.132
  677LIG     CB 9884   0.423   6.442   0.228
  677LIG    HB1 9885   0.325   6.424   0.219
  677LIG    HB2 9886   0.440   6.539   0.214
  677LIG     CG 9887   0.468   6.404   0.366
  677LIG    OD1 9888   0.404   6.298   0.420
  677LIG    OD2 9889   0.556   6.466   0.426
  677LIG      C 9890   0.475   6.210   0.147
  677LIG    OT1 9891   0.417   6.139   0.046
  677LIG    OT2 9892   0.514   6.159   0.267
  678LIG      N 9893   9.235   0.366   3.245
  678LIG     H1 9894   9.314   0.308   3.223
  678LIG     H2 9895   9.155   0.335   3.193
  678LIG     H3 9896   9.256   0.461   3.220
  678LIG     CA 9897   9.206   0.359   3.393
  678LIG     HA 9898   9.186   0.264   3.418
  678LIG     CB 9899   9.328   0.405   3.470
  678LIG    HB1 9900   9.351   0.499   3.443
  678LIG    HB2 9901   9.405   0.346   3.448
  678LIG     CG 9902   9.302   0.400   3.617
  678LIG    OD1 9903   9.244   0.511   3.668
  678LIG    OD2 9904   9.333   0.303   3.687
  678LIG      C 9905   9.084   0.449   3.428
  678LIG    OT1 9906   9.026   0.517   3.325
  678LIG    OT2 9907   9.045   0.453   3.559
  679LIG      N 9908   4.301   8.402   8.645
  679LIG     H1 9909   4.261   8.427   8.734
  679LIG     H2 9910   4.361   8.323   8.656
  679LIG     H3 9911   4.354   8.480   8.609
  679LIG     CA 9912   4.189   8.369   8.548
  679LIG     HA 9913   4.136   8.292   8.583
  679LIG     CB 9914   4.099   8.489   8.533
  679LIG    HB1 9915   4.153   8.567   8.500
  679LIG    HB2 9916   4.060   8.513   8.621
  679LIG     CG 9917   3.989   8.460   8.436
  679LIG    OD1 9918   4.019   8.483   8.306
  679LIG    OD2 9919   3.878   8.420   8.472
  679LIG      C 9920   4.249   8.330   8.410
  679LIG    OT1 9921   4.386   8.333   8.398
  679LIG    OT2 9922   4.162   8.297   8.311
  680LIG      N 9923   1.700   7.995   5.392
  680LIG     H1 9924   1.663   7.975   5.301
  680LIG     H2 9925   1.695   7.913   5.449
  680LIG     H3 9926   1.646   8.069   5.433
  680LIG     CA 9927   1.844   8.040   5.378
  680LIG     HA 9928   1.898   7.968   5.336
  680LIG     CB 9929   1.849   8.163   5.290
  680LIG    HB1 9930   1.794   8.236   5.331
  680LIG    HB2 9931   1.813   8.141   5.200
  680LIG     CG 9932   1.990   8.211   5.276
  680LIG    OD1 9933   2.032   8.295   5.373
  680LIG    OD2 9934   2.062   8.178   5.182
  680LIG      C 9935   1.903   8.073   5.518
  680LIG    OT1 9936   1.820   8.057   5.626
  680LIG    OT2 9937   2.032   8.115   5.523
  681LIG      N 9938   2.078   9.422   8.305
  681LIG     H1 9939   2.152   9.406   8.239
  681LIG     H2 9940   2.028   9.505   8.280
  681LIG     H3 9941   2.117   9.432   8.397
  681LIG     CA 9942   1.983   9.303   8.305
  681LIG     HA 9943   1.945   9.292   8.213
  681LIG     CB 9944   2.061   9.178   8.341
  681LIG    HB1 9945   2.102   9.190   8.432
  681LIG    HB2 9946   2.133   9.163   8.275
  681LIG     CG 9947   1.970   9.059   8.343
  681LIG    OD1 9948   1.906   9.039   8.460
  681LIG    OD2 9949   1.956   8.985   8.246
  681LIG      C 9950   1.869   9.326   8.407
  681LIG    OT1 9951   1.871   9.443   8.478
  681LIG    OT2 9952   1.775   9.228   8.418
  682LIG      N 9953   0.089   5.130   3.674
  682LIG     H1 9954   0.056   5.035   3.680
  682LIG     H2 9955   0.084   5.172   3.764
  682LIG     H3 9956   0.033   5.181   3.609
  682LIG     CA 9957   0.234   5.131   3.627
  682LIG     HA 9958   0.290   5.079   3.691
  682LIG     CB 9959   0.241   5.064   3.491
  682LIG    HB1 9960   0.182   5.114   3.426
  682LIG    HB2 9961   0.209   4.970   3.497
  682LIG     CG 9962   0.382   5.065   3.440
  682LIG    OD1 9963   0.418   5.177   3.373
  682LIG    OD2 9964   0.458   4.970   3.456
  682LIG      C 9965   0.285   5.277   3.617
  682LIG    OT1 9966   0.198   5.376   3.651
  682LIG    OT2 9967   0.414   5.294   3.576
  683LIG      N 9968   8.664   6.422   7.375
  683LIG     H1 9969   8.692   6.326   7.365
  683LIG     H2 9970   8.744   6.479   7.394
  683LIG     H3 9971   8.598   6.430   7.450
  683LIG     CA 9972   8.599   6.469   7.246
  683LIG     HA 9973   8.664   6.460   7.171
  683LIG     CB 9974   8.479   6.381   7.217
  683LIG    HB1 9975   8.414   6.386   7.293
  683LIG    HB2 9976   8.508   6.286   7.207
  683LIG     CG 9977   8.411   6.425   7.091
  683LIG    OD1 9978   8.319   6.523   7.107
  683LIG    OD2 9979   8.436   6.375   6.981
  683LIG      C 9980   8.553   6.616   7.260
  683LIG    OT1 9981   8.578   6.678   7.379
  683LIG    OT2 9982   8.493   6.673   7.152
  684LIG      N 9983  10.017   2.590   3.455
  684LIG     H1 9984   9.921   2.618   3.456
  684LIG     H2 9985  10.064   2.626   3.536
  684LIG     H3 9986  10.062   2.626   3.372
  684LIG     CA 9987  10.026   2.438   3.453
  684LIG     HA 9988   9.982   2.402   3.535
  684LIG     CB 9989   9.955   2.386   3.331
  684LIG    HB1 9990   9.997   2.425   3.248
  684LIG    HB2 9991   9.859   2.414   3.333
  684LIG     CG 9992   9.963   2.237   3.325
  684LIG    OD1 9993  10.074   2.188   3.266
  684LIG    OD2 9994   9.874   2.164   3.370
  684LIG      C 9995  10.175   2.394   3.451
  684LIG    OT1 9996  10.270   2.493   3.450
  684LIG    OT2 9997  10.200   2.260   3.449
  685LIG      N 9998   9.438   1.758   0.496
  685LIG     H1 9999   9.344   1.730   0.476
  685LIG     H210000   9.454   1.756   0.595
  685LIG     H310001   9.454   1.850   0.461
  685LIG     CA10002   9.534   1.662   0.428
  685LIG     HA10003   9.519   1.569   0.461
  685LIG     CB10004   9.509   1.665   0.278
  685LIG    HB110005   9.522   1.759   0.244
  685LIG    HB210006   9.415   1.637   0.260
  685LIG     CG10007   9.603   1.573   0.207
  685LIG    OD110008   9.723   1.627   0.175
  685LIG    OD210009   9.573   1.457   0.179
  685LIG      C10010   9.681   1.704   0.457
  685LIG    OT110011   9.700   1.814   0.536
  685LIG    OT210012   9.780   1.628   0.402
  686LIG      N10013   8.699   2.362   8.757
  686LIG     H110014   8.746   2.399   8.677
  686LIG     H210015   8.649   2.436   8.803
  686LIG     H310016   8.766   2.322   8.820
  686LIG     CA10017   8.600   2.255   8.714
  686LIG     HA10018   8.534   2.294   8.650
  686LIG     CB10019   8.676   2.145   8.643
  686LIG    HB110020   8.746   2.106   8.705
  686LIG    HB210021   8.722   2.181   8.563
  686LIG     CG10022   8.583   2.036   8.600
  686LIG    OD110023   8.558   1.942   8.694
  686LIG    OD210024   8.533   2.032   8.488
  686LIG      C10025   8.527   2.197   8.838
  686LIG    OT110026   8.560   2.249   8.960
  686LIG    OT210027   8.435   2.099   8.815
  687LIG      N10028   2.018   5.287   3.949
  687LIG     H110029   2.013   5.264   4.047
  687LIG     H210030   2.019   5.386   3.939
  687LIG     H310031   1.938   5.249   3.902
  687LIG     CA10032   2.144   5.228   3.888
  687LIG     HA10033   2.224   5.265   3.936
  687LIG     CB10034   2.141   5.078   3.906
  687LIG    HB110035   2.059   5.040   3.861
  687LIG    HB210036   2.137   5.055   4.003
  687LIG     CG10037   2.263   5.015   3.846
  687LIG    OD110038   2.253   4.988   3.714
  687LIG    OD210039   2.364   4.991   3.912
  687LIG      C10040   2.151   5.263   3.737
  687LIG    OT110041   2.049   5.338   3.686
  687LIG    OT210042   2.259   5.217   3.668
  688LIG      N10043   6.774   8.407   1.216
  688LIG     H110044   6.821   8.464   1.284
  688LIG     H210045   6.768   8.313   1.250
  688LIG     H310046   6.826   8.409   1.130
  688LIG     CA10047   6.635   8.461   1.191
  688LIG     HA10048   6.583   8.460   1.276
  688LIG     CB10049   6.645   8.603   1.141
  688LIG    HB110050   6.700   8.605   1.056
  688LIG    HB210051   6.691   8.660   1.209
  688LIG     CG10052   6.509   8.660   1.113
  688LIG    OD110053   6.461   8.633   0.990
  688LIG    OD210054   6.447   8.726   1.196
  688LIG      C10055   6.562   8.373   1.085
  688LIG    OT110056   6.631   8.267   1.034
  688LIG    OT210057   6.435   8.409   1.052
  689LIG      N10058   7.632   0.867   7.115
  689LIG     H110059   7.541   0.852   7.155
  689LIG     H210060   7.697   0.889   7.187
  689LIG     H310061   7.627   0.944   7.050
  689LIG     CA10062   7.677   0.742   7.041
  689LIG     HA10063   7.681   0.666   7.105
  689LIG     CB10064   7.577   0.710   6.933
  689LIG    HB110065   7.570   0.788   6.869
  689LIG    HB210066   7.487   0.694   6.973
  689LIG     CG10067   7.619   0.588   6.857
  689LIG    OD110068   7.703   0.612   6.754
  689LIG    OD210069   7.578   0.476   6.885
  689LIG      C10070   7.817   0.766   6.978
  689LIG    OT110071   7.875   0.888   6.998
  689LIG    OT210072   7.872   0.662   6.908
  690LIG      N10073   4.564   1.625   8.613
  690LIG     H110074   4.475   1.604   8.654
  690LIG     H210075   4.555   1.627   8.514
  690LIG     H310076   4.631   1.556   8.640
  690LIG     CA10077   4.611   1.761   8.662
  690LIG     HA10078   4.545   1.831   8.636
  690LIG     CB10079   4.623   1.758   8.813
  690LIG    HB110080   4.687   1.686   8.840
  690LIG    HB210081   4.534   1.738   8.853
  690LIG     CG10082   4.670   1.890   8.865
  690LIG    OD110083   4.805   1.904   8.867
  690LIG    OD210084   4.593   1.978   8.903
  690LIG      C10085   4.749   1.795   8.599
  690LIG    OT110086   4.804   1.702   8.515
  690LIG    OT210087   4.805   1.914   8.634
  691LIG      N10088   2.968   9.544   0.336
  691LIG     H110089   2.941   9.638   0.317
  691LIG     H210090   2.951   9.523   0.432
  691LIG     H310091   3.065   9.533   0.316
  691LIG     CA10092   2.888   9.449   0.247
  691LIG     HA10093   2.791   9.461   0.266
  691LIG     CB10094   2.914   9.484   0.103
  691LIG    HB110095   3.013   9.476   0.083
  691LIG    HB210096   2.886   9.578   0.085
  691LIG     CG10097   2.838   9.392   0.012
  691LIG    OD110098   2.902   9.276  -0.017
  691LIG    OD210099   2.727   9.420  -0.033
  691LIG      C10100   2.930   9.303   0.275
  691LIG    OT110101   3.027   9.282   0.370
  691LIG    OT210102   2.867   9.205   0.203
  692LIG      N10103   6.544   7.969   9.093
  692LIG     H110104   6.608   7.938   9.022
  692LIG     H210105   6.470   7.902   9.102
  692LIG     H310106   6.506   8.058   9.067
  692LIG     CA10107   6.617   7.983   9.225
  692LIG     HA10108   6.656   7.894   9.251
  692LIG     CB10109   6.729   8.083   9.208
  692LIG    HB110110   6.691   8.171   9.180
  692LIG    HB210111   6.793   8.051   9.138
  692LIG     CG10112   6.803   8.100   9.337
  692LIG    OD110113   6.750   8.192   9.421
  692LIG    OD210114   6.905   8.036   9.364
  692LIG      C10115   6.519   8.031   9.335
  692LIG    OT110116   6.389   8.052   9.299
  692LIG    OT210117   6.571   8.048   9.460
  693LIG      N10118   7.891   2.062   3.934
  693LIG     H110119   7.809   2.018   3.971
  693LIG     H210120   7.881   2.073   3.835
  693LIG     H310121   7.971   2.006   3.953
  693LIG     CA10122   7.909   2.199   3.999
  693LIG     HA10123   7.829   2.255   3.980
  693LIG     CB10124   7.922   2.180   4.148
  693LIG    HB110125   8.001   2.121   4.168
  693LIG    HB210126   7.840   2.137   4.184
  693LIG     CG10127   7.942   2.312   4.215
  693LIG    OD110128   8.071   2.354   4.222
  693LIG    OD210129   7.849   2.377   4.262
  693LIG      C10130   8.036   2.267   3.942
  693LIG    OT110131   8.108   2.199   3.848
  693LIG    OT210132   8.067   2.391   3.991
  694LIG      N10133   9.636   9.789   3.975
  694LIG     H110134   9.681   9.814   3.889
  694LIG     H210135   9.665   9.850   4.048
  694LIG     H310136   9.660   9.695   3.998
  694LIG     CA10137   9.485   9.799   3.957
  694LIG     HA10138   9.461   9.893   3.933
  694LIG     CB10139   9.443   9.706   3.845
  694LIG    HB110140   9.469   9.612   3.867
  694LIG    HB210141   9.488   9.733   3.760
  694LIG     CG10142   9.294   9.713   3.826
  694LIG    OD110143   9.223   9.629   3.905
  694LIG    OD210144   9.242   9.787   3.743
  694LIG      C10145   9.414   9.759   4.089
  694LIG    OT110146   9.493   9.723   4.194
  694LIG    OT210147   9.277   9.763   4.089
  695LIG      N10148   0.587   8.112   3.971
  695LIG     H110149   0.523   8.188   3.960
  695LIG     H210150   0.538   8.026   3.962
  695LIG     H310151   0.631   8.118   4.061
  695LIG     CA10152   0.694   8.121   3.863
  695LIG     HA10153   0.651   8.117   3.773
  695LIG     CB10154   0.766   8.254   3.876
  695LIG    HB110155   0.807   8.260   3.968
  695LIG    HB210156   0.701   8.328   3.865
  695LIG     CG10157   0.873   8.265   3.772
  695LIG    OD110158   0.992   8.211   3.807
  695LIG    OD210159   0.854   8.321   3.664
  695LIG      C10160   0.795   8.004   3.879
  695LIG    OT110161   0.773   7.916   3.981
  695LIG    OT210162   0.897   7.998   3.789
  696LIG      N10163   5.640   7.433   9.324
  696LIG     H110164   5.579   7.354   9.335
  696LIG     H210165   5.585   7.517   9.321
  696LIG     H310166   5.692   7.424   9.239
  696LIG     CA10167   5.736   7.440   9.441
  696LIG     HA10168   5.684   7.448   9.526
  696LIG     CB10169   5.817   7.312   9.446
  696LIG    HB110170   5.867   7.301   9.359
  696LIG    HB210171   5.756   7.234   9.457
  696LIG     CG10172   5.914   7.315   9.559
  696LIG    OD110173   6.032   7.375   9.531
  696LIG    OD210174   5.889   7.267   9.670
  696LIG      C10175   5.831   7.562   9.426
  696LIG    OT110176   5.814   7.640   9.315
  696LIG    OT210177   5.923   7.581   9.524
  697LIG      N10178   4.841   8.329   6.499
  697LIG     H110179   4.849   8.421   6.459
  697LIG     H210180   4.899   8.265   6.450
  697LIG     H310181   4.745   8.299   6.495
  697LIG     CA10182   4.884   8.335   6.645
  697LIG     HA10183   4.979   8.366   6.650
  697LIG     CB10184   4.796   8.434   6.719
  697LIG    HB110185   4.700   8.405   6.712
  697LIG    HB210186   4.805   8.524   6.678
  697LIG     CG10187   4.835   8.441   6.863
  697LIG    OD110188   4.777   8.348   6.942
  697LIG    OD210189   4.914   8.525   6.906
  697LIG      C10190   4.872   8.195   6.710
  697LIG    OT110191   4.826   8.093   6.630
  697LIG    OT210192   4.907   8.183   6.841
  698LIG      N10193   7.986   4.000   2.914
  698LIG     H110194   7.886   3.991   2.920
  698LIG     H210195   8.010   4.055   2.834
  698LIG     H310196   8.027   3.909   2.906
  698LIG     CA10197   8.039   4.066   3.040
  698LIG     HA10198   7.998   4.157   3.050
  698LIG     CB10199   8.001   3.982   3.160
  698LIG    HB110200   8.039   3.890   3.150
  698LIG    HB210201   7.902   3.975   3.166
  698LIG     CG10202   8.053   4.044   3.286
  698LIG    OD110203   8.180   4.009   3.318
  698LIG    OD210204   7.985   4.119   3.355
  698LIG      C10205   8.194   4.079   3.032
  698LIG    OT110206   8.254   4.032   2.919
  698LIG    OT210207   8.257   4.137   3.138
  699LIG      N10208   4.570   1.671   6.922
  699LIG     H110209   4.612   1.739   6.983
  699LIG     H210210   4.500   1.715   6.866
  699LIG     H310211   4.529   1.597   6.976
  699LIG     CA10212   4.677   1.613   6.831
  699LIG     HA10213   4.719   1.686   6.777
  699LIG     CB10214   4.784   1.548   6.917
  699LIG    HB110215   4.742   1.476   6.973
  699LIG    HB210216   4.825   1.616   6.977
  699LIG     CG10217   4.890   1.487   6.830
  699LIG    OD110218   4.865   1.362   6.788
  699LIG    OD210219   4.994   1.548   6.801
  699LIG      C10220   4.614   1.507   6.736
  699LIG    OT110221   4.480   1.485   6.748
  699LIG    OT210222   4.698   1.446   6.648
  700LIG      N10223   1.840   0.454   7.601
  700LIG     H110224   1.847   0.382   7.671
  700LIG     H210225   1.853   0.543   7.644
  700LIG     H310226   1.749   0.449   7.558
  700LIG     CA10227   1.946   0.432   7.495
  700LIG     HA10228   2.037   0.435   7.538
  700LIG     CB10229   1.926   0.296   7.433
  700LIG    HB110230   1.835   0.290   7.392
  700LIG    HB210231   1.935   0.225   7.503
  700LIG     CG10232   2.029   0.271   7.327
  700LIG    OD110233   1.996   0.318   7.204
  700LIG    OD210234   2.135   0.212   7.349
  700LIG      C10235   1.936   0.542   7.386
  700LIG    OT110236   1.838   0.636   7.402
  700LIG    OT210237   2.025   0.536   7.284
  701LIG      N10238   1.970   0.561   6.578
  701LIG     H110239   1.912   0.480   6.578
  701LIG     H210240   2.031   0.558   6.499
  701LIG     H310241   2.024   0.564   6.662
  701LIG     CA10242   1.883   0.685   6.571
  701LIG     HA10243   1.828   0.683   6.487
  701LIG     CB10244   1.790   0.687   6.690
  701LIG    HB110245   1.845   0.687   6.775
  701LIG    HB210246   1.732   0.606   6.689
  701LIG     CG10247   1.704   0.810   6.687
  701LIG    OD110248   1.759   0.919   6.743
  701LIG    OD210249   1.591   0.809   6.638
  701LIG      C10250   1.972   0.813   6.571
  701LIG    OT110251   2.107   0.794   6.577
  701LIG    OT210252   1.908   0.933   6.564
  702LIG      N10253   9.756   0.449   4.117
  702LIG     H110254   9.791   0.505   4.043
  702LIG     H210255   9.727   0.507   4.193
  702LIG     H310256   9.828   0.386   4.149
  702LIG     CA10257   9.638   0.367   4.068
  702LIG     HA10258   9.566   0.429   4.035
  702LIG     CB10259   9.683   0.280   3.953
  702LIG    HB110260   9.757   0.219   3.984
  702LIG    HB210261   9.717   0.337   3.879
  702LIG     CG10262   9.569   0.197   3.902
  702LIG    OD110263   9.551   0.080   3.967
  702LIG    OD210264   9.499   0.233   3.807
  702LIG      C10265   9.582   0.279   4.182
  702LIG    OT110266   9.645   0.287   4.304
  702LIG    OT210267   9.475   0.199   4.153
  703LIG      N10268   2.151   2.269   8.980
  703LIG     H110269   2.082   2.197   8.989
  703LIG     H210270   2.165   2.291   8.883
  703LIG     H310271   2.237   2.238   9.021
  703LIG     CA10272   2.103   2.394   9.053
  703LIG     HA10273   2.017   2.425   9.014
  703LIG     CB10274   2.081   2.359   9.199
  703LIG    HB110275   2.167   2.325   9.239
  703LIG    HB210276   2.012   2.288   9.207
  703LIG     CG10277   2.035   2.480   9.275
  703LIG    OD110278   2.135   2.559   9.322
  703LIG    OD210279   1.916   2.505   9.294
  703LIG      C10280   2.210   2.506   9.041
  703LIG    OT110281   2.323   2.477   8.971
  703LIG    OT210282   2.181   2.625   9.102
  704LIG      N10283   8.237   8.404   6.616
  704LIG     H110284   8.174   8.360   6.552
  704LIG     H210285   8.199   8.493   6.644
  704LIG     H310286   8.325   8.417   6.572
  704LIG     CA10287   8.254   8.317   6.739
  704LIG     HA10288   8.165   8.303   6.783
  704LIG     CB10289   8.309   8.182   6.696
  704LIG    HB110290   8.397   8.195   6.650
  704LIG    HB210291   8.245   8.139   6.633
  704LIG     CG10292   8.329   8.094   6.815
  704LIG    OD110293   8.448   8.108   6.878
  704LIG    OD210294   8.243   8.013   6.852
  704LIG      C10295   8.352   8.384   6.839
  704LIG    OT110296   8.404   8.505   6.803
  704LIG    OT210297   8.378   8.318   6.955
  705LIG      N10298   1.836   3.760   0.592
  705LIG     H110299   1.880   3.823   0.657
  705LIG     H210300   1.891   3.754   0.509
  705LIG     H310301   1.744   3.794   0.570
  705LIG     CA10302   1.823   3.622   0.655
  705LIG     HA10303   1.914   3.588   0.678
  705LIG     CB10304   1.741   3.634   0.782
  705LIG    HB110305   1.650   3.670   0.759
  705LIG    HB210306   1.786   3.695   0.846
  705LIG     CG10307   1.725   3.499   0.846
  705LIG    OD110308   1.622   3.426   0.800
  705LIG    OD210309   1.801   3.459   0.935
  705LIG      C10310   1.755   3.525   0.556
  705LIG    OT110311   1.718   3.575   0.434
  705LIG    OT210312   1.736   3.396   0.598
  706LIG      N10313   8.871   3.708   9.717
  706LIG     H110314   8.897   3.784   9.777
  706LIG     H210315   8.874   3.737   9.622
  706LIG     H310316   8.779   3.677   9.740
  706LIG     CA10317   8.969   3.593   9.738
  706LIG     HA10318   9.061   3.624   9.716
  706LIG     CB10319   8.964   3.550   9.883
  706LIG    HB110320   8.871   3.522   9.907
  706LIG    HB210321   8.991   3.627   9.941
  706LIG     CG10322   9.058   3.436   9.907
  706LIG    OD110323   9.006   3.314   9.882
  706LIG    OD210324   9.174   3.453   9.947
  706LIG      C10325   8.930   3.474   9.647
  706LIG    OT110326   8.820   3.489   9.566
  706LIG    OT210327   9.008   3.362   9.654
  707LIG      N10328  -0.062   4.281   5.845
  707LIG     H110329  -0.005   4.199   5.839
  707LIG     H210330  -0.126   4.284   5.768
  707LIG     H310331  -0.003   4.363   5.843
  707LIG     CA10332  -0.139   4.279   5.976
  707LIG     HA10333  -0.197   4.198   5.979
  707LIG     CB10334  -0.041   4.274   6.091
  707LIG    HB110335   0.019   4.354   6.087
  707LIG    HB210336   0.014   4.191   6.084
  707LIG     CG10337  -0.114   4.273   6.222
  707LIG    OD110338  -0.145   4.395   6.270
  707LIG    OD210339  -0.143   4.169   6.281
  707LIG      C10340  -0.228   4.406   5.987
  707LIG    OT110341  -0.222   4.496   5.884
  707LIG    OT210342  -0.304   4.419   6.100
  708LIG      N10343   8.089   0.239   8.766
  708LIG     H110344   8.181   0.252   8.803
  708LIG     H210345   8.030   0.199   8.836
  708LIG     H310346   8.094   0.178   8.687
  708LIG     CA10347   8.032   0.373   8.722
  708LIG     HA10348   8.028   0.434   8.801
  708LIG     CB10349   8.123   0.433   8.617
  708LIG    HB110350   8.130   0.370   8.539
  708LIG    HB210351   8.214   0.446   8.656
  708LIG     CG10352   8.070   0.564   8.570
  708LIG    OD110353   7.980   0.557   8.470
  708LIG    OD210354   8.106   0.672   8.619
  708LIG      C10355   7.890   0.353   8.663
  708LIG    OT110356   7.840   0.226   8.661
  708LIG    OT210357   7.825   0.465   8.619
  709LIG      N10358   1.078   7.377   5.438
  709LIG     H110359   1.047   7.288   5.471
  709LIG     H210360   1.139   7.364   5.359
  709LIG     H310361   1.127   7.424   5.511
  709LIG     CA10362   0.958   7.460   5.396
  709LIG     HA10363   0.908   7.413   5.324
  709LIG     CB10364   0.867   7.477   5.515
  709LIG    HB110365   0.917   7.523   5.590
  709LIG    HB210366   0.835   7.388   5.547
  709LIG     CG10367   0.747   7.561   5.479
  709LIG    OD110368   0.766   7.694   5.489
  709LIG    OD210369   0.641   7.511   5.442
  709LIG      C10370   1.005   7.599   5.345
  709LIG    OT110371   1.139   7.624   5.345
  709LIG    OT210372   0.908   7.686   5.304
  710LIG      N10373   6.477   5.191   0.451
  710LIG     H110374   6.474   5.151   0.543
  710LIG     H210375   6.436   5.127   0.386
  710LIG     H310376   6.572   5.208   0.426
  710LIG     CA10377   6.400   5.322   0.450
  710LIG     HA10378   6.305   5.305   0.476
  710LIG     CB10379   6.463   5.416   0.550
  710LIG    HB110380   6.559   5.432   0.526
  710LIG    HB210381   6.458   5.376   0.641
  710LIG     CG10382   6.390   5.547   0.551
  710LIG    OD110383   6.433   5.636   0.459
  710LIG    OD210384   6.299   5.572   0.630
  710LIG      C10385   6.404   5.385   0.308
  710LIG    OT110386   6.473   5.316   0.212
  710LIG    OT210387   6.340   5.503   0.291
  711LIG      N10388   2.512   9.313   8.470
  711LIG     H110389   2.544   9.404   8.497
  711LIG     H210390   2.518   9.303   8.371
  711LIG     H310391   2.418   9.301   8.500
  711LIG     CA10392   2.599   9.207   8.536
  711LIG     HA10393   2.694   9.219   8.508
  711LIG     CB10394   2.591   9.223   8.686
  711LIG    HB110395   2.495   9.214   8.716
  711LIG    HB210396   2.623   9.314   8.712
  711LIG     CG10397   2.674   9.120   8.755
  711LIG    OD110398   2.611   9.002   8.777
  711LIG    OD210399   2.790   9.141   8.790
  711LIG      C10400   2.550   9.065   8.495
  711LIG    OT110401   2.443   9.058   8.411
  711LIG    OT210402   2.618   8.959   8.547
  712LIG      N10403   4.153   7.141   9.730
  712LIG     H110404   4.237   7.092   9.751
  712LIG     H210405   4.150   7.162   9.633
  712LIG     H310406   4.150   7.226   9.783
  712LIG     CA10407   4.033   7.055   9.768
  712LIG     HA10408   4.036   6.970   9.716
  712LIG     CB10409   4.040   7.023   9.915
  712LIG    HB110410   4.040   7.108   9.968
  712LIG    HB210411   4.124   6.973   9.935
  712LIG     CG10412   3.923   6.939   9.956
  712LIG    OD110413   3.812   7.009   9.990
  712LIG    OD210414   3.928   6.816   9.960
  712LIG      C10415   3.902   7.131   9.737
  712LIG    OT110416   3.913   7.257   9.683
  712LIG    OT210417   3.785   7.067   9.765
  713LIG      N10418   4.860   8.031   3.413
  713LIG     H110419   4.875   7.933   3.398
  713LIG     H210420   4.840   8.048   3.510
  713LIG     H310421   4.783   8.062   3.357
  713LIG     CA10422   4.985   8.108   3.373
  713LIG     HA10423   5.062   8.077   3.428
  713LIG     CB10424   5.015   8.081   3.227
  713LIG    HB110425   4.937   8.109   3.171
  713LIG    HB210426   5.030   7.983   3.214
  713LIG     CG10427   5.137   8.156   3.183
  713LIG    OD110428   5.113   8.282   3.142
  713LIG    OD210429   5.249   8.106   3.184
  713LIG      C10430   4.963   8.260   3.394
  713LIG    OT110431   4.842   8.300   3.443
  713LIG    OT210432   5.067   8.343   3.363
  714LIG      N10433   1.860   0.972   0.638
  714LIG     H110434   1.918   1.021   0.572
  714LIG     H210435   1.771   1.016   0.643
  714LIG     H310436   1.904   0.973   0.728
  714LIG     CA10437   1.844   0.828   0.593
  714LIG     HA10438   1.801   0.826   0.503
  714LIG     CB10439   1.980   0.763   0.584
  714LIG    HB110440   2.025   0.767   0.673
  714LIG    HB210441   2.036   0.812   0.518
  714LIG     CG10442   1.968   0.621   0.541
  714LIG    OD110443   1.946   0.533   0.641
  714LIG    OD210444   1.977   0.586   0.423
  714LIG      C10445   1.755   0.751   0.694
  714LIG    OT110446   1.708   0.820   0.802
  714LIG    OT210447   1.731   0.619   0.667
  715LIG      N10448   7.084   1.322   8.591
  715LIG     H110449   7.081   1.283   8.499
  715LIG     H210450   7.119   1.254   8.655
  715LIG     H310451   6.991   1.350   8.618
  715LIG     CA10452   7.174   1.444   8.592
  715LIG     HA10453   7.266   1.417   8.564
  715LIG     CB10454   7.121   1.545   8.493
  715LIG    HB110455   7.027   1.571   8.518
  715LIG    HB210456   7.120   1.505   8.401
  715LIG     CG10457   7.207   1.668   8.492
  715LIG    OD110458   7.175   1.760   8.585
  715LIG    OD210459   7.299   1.683   8.411
  715LIG      C10460   7.179   1.506   8.734
  715LIG    OT110461   7.104   1.445   8.831
  715LIG    OT210462   7.256   1.617   8.751
  716LIG      N10463   1.849   4.532   5.423
  716LIG     H110464   1.770   4.471   5.417
  716LIG     H210465   1.932   4.478   5.439
  716LIG     H310466   1.836   4.598   5.497
  716LIG     CA10467   1.864   4.609   5.292
  716LIG     HA10468   1.877   4.544   5.217
  716LIG     CB10469   1.738   4.688   5.268
  716LIG    HB110470   1.723   4.752   5.344
  716LIG    HB210471   1.660   4.627   5.261
  716LIG     CG10472   1.749   4.766   5.140
  716LIG    OD110473   1.808   4.887   5.153
  716LIG    OD210474   1.707   4.724   5.033
  716LIG      C10475   1.986   4.704   5.300
  716LIG    OT110476   2.058   4.705   5.417
  716LIG    OT210477   2.013   4.780   5.190
  717LIG      N10478   5.913  -0.022   5.078
  717LIG     H110479   5.853   0.057   5.085
  717LIG     H210480   5.955  -0.041   5.167
  717LIG     H310481   5.985  -0.003   5.010
  717LIG     CA10482   5.833  -0.143   5.033
  717LIG     HA10483   5.761  -0.162   5.099
  717LIG     CB10484   5.770  -0.112   4.899
  717LIG    HB110485   5.841  -0.091   4.832
  717LIG    HB210486   5.709  -0.034   4.907
  717LIG     CG10487   5.691  -0.230   4.850
  717LIG    OD110488   5.762  -0.322   4.781
  717LIG    OD210489   5.570  -0.241   4.871
  717LIG      C10490   5.926  -0.267   5.020
  717LIG    OT110491   6.058  -0.249   5.050
  717LIG    OT210492   5.868  -0.384   4.980
  718LIG      N10493   9.796   3.169   5.608
  718LIG     H110494   9.765   3.255   5.566
  718LIG     H210495   9.732   3.142   5.680
  718LIG     H310496   9.887   3.181   5.646
  718LIG     CA10497   9.801   3.060   5.502
  718LIG     HA10498   9.710   3.048   5.462
  718LIG     CB10499   9.896   3.103   5.392
  718LIG    HB110500   9.987   3.118   5.431
  718LIG    HB210501   9.864   3.188   5.351
  718LIG     CG10502   9.905   2.997   5.286
  718LIG    OD110503   9.995   2.900   5.311
  718LIG    OD210504   9.835   3.000   5.185
  718LIG      C10505   9.849   2.927   5.565
  718LIG    OT110506   9.877   2.928   5.698
  718LIG    OT210507   9.858   2.819   5.482
  719LIG      N10508   2.476   9.512   0.106
  719LIG     H110509   2.441   9.419   0.118
  719LIG     H210510   2.490   9.529   0.008
  719LIG     H310511   2.563   9.522   0.155
  719LIG     CA10512   2.375   9.612   0.161
  719LIG     HA10513   2.289   9.601   0.113
  719LIG     CB10514   2.354   9.583   0.308
  719LIG    HB110515   2.442   9.591   0.357
  719LIG    HB210516   2.319   9.491   0.320
  719LIG     CG10517   2.256   9.681   0.366
  719LIG    OD110518   2.311   9.797   0.409
  719LIG    OD210519   2.136   9.656   0.375
  719LIG      C10520   2.428   9.756   0.142
  719LIG    OT110521   2.550   9.771   0.082
  719LIG    OT210522   2.349   9.858   0.187
  720LIG      N10523   4.197   1.305   0.692
  720LIG     H110524   4.147   1.228   0.652
  720LIG     H210525   4.193   1.299   0.792
  720LIG     H310526   4.156   1.391   0.661
  720LIG     CA10527   4.342   1.300   0.646
  720LIG     HA10528   4.383   1.214   0.676
  720LIG     CB10529   4.346   1.307   0.495
  720LIG    HB110530   4.303   1.392   0.464
  720LIG    HB210531   4.297   1.230   0.457
  720LIG     CG10532   4.488   1.304   0.447
  720LIG    OD110533   4.549   1.424   0.442
  720LIG    OD210534   4.544   1.199   0.413
  720LIG      C10535   4.421   1.419   0.707
  720LIG    OT110536   4.352   1.505   0.788
  720LIG    OT210537   4.553   1.428   0.675
  721LIG      N10538   7.944   7.081   6.913
  721LIG     H110539   7.937   7.174   6.877
  721LIG     H210540   7.954   7.016   6.838
  721LIG     H310541   7.862   7.059   6.966
  721LIG     CA10542   8.065   7.071   7.005
  721LIG     HA10543   8.147   7.093   6.953
  721LIG     CB10544   8.050   7.170   7.118
  721LIG    HB110545   7.965   7.150   7.169
  721LIG    HB210546   8.044   7.262   7.081
  721LIG     CG10547   8.167   7.162   7.211
  721LIG    OD110548   8.156   7.069   7.308
  721LIG    OD210549   8.265   7.236   7.200
  721LIG      C10550   8.077   6.927   7.062
  721LIG    OT110551   7.982   6.836   7.023
  721LIG    OT210552   8.181   6.902   7.146
  722LIG      N10553   8.822   2.101   6.078
  722LIG     H110554   8.882   2.177   6.052
  722LIG     H210555   8.840   2.074   6.172
  722LIG     H310556   8.840   2.023   6.017
  722LIG     CA10557   8.677   2.142   6.064
  722LIG     HA10558   8.659   2.220   6.123
  722LIG     CB10559   8.651   2.183   5.920
  722LIG    HB110560   8.672   2.106   5.859
  722LIG    HB210561   8.710   2.260   5.896
  722LIG     CG10562   8.508   2.223   5.902
  722LIG    OD110563   8.423   2.122   5.875
  722LIG    OD210564   8.471   2.341   5.910
  722LIG      C10565   8.584   2.024   6.102
  722LIG    OT110566   8.644   1.908   6.141
  722LIG    OT210567   8.449   2.046   6.095
  723LIG      N10568   1.231   3.430   9.316
  723LIG     H110569   1.216   3.529   9.315
  723LIG     H210570   1.172   3.387   9.248
  723LIG     H310571   1.209   3.395   9.407
  723LIG     CA10572   1.376   3.400   9.285
  723LIG     HA10573   1.399   3.436   9.194
  723LIG     CB10574   1.464   3.468   9.388
  723LIG    HB110575   1.440   3.434   9.479
  723LIG    HB210576   1.449   3.567   9.385
  723LIG     CG10577   1.608   3.440   9.361
  723LIG    OD110578   1.655   3.325   9.415
  723LIG    OD210579   1.679   3.516   9.295
  723LIG      C10580   1.401   3.247   9.287
  723LIG    OT110581   1.294   3.167   9.316
  723LIG    OT210582   1.527   3.204   9.261
  724LIG      N10583   0.090   7.331   2.339
  724LIG     H110584   0.053   7.278   2.262
  724LIG     H210585   0.040   7.417   2.347
  724LIG     H310586   0.187   7.349   2.323
  724LIG     CA10587   0.074   7.251   2.467
  724LIG     HA10588  -0.023   7.232   2.482
  724LIG     CB10589   0.148   7.120   2.452
  724LIG    HB110590   0.245   7.138   2.434
  724LIG    HB210591   0.110   7.068   2.376
  724LIG     CG10592   0.136   7.039   2.578
  724LIG    OD110593   0.228   7.066   2.672
  724LIG    OD210594   0.049   6.953   2.592
  724LIG      C10595   0.131   7.331   2.587
  724LIG    OT110596   0.183   7.454   2.560
  724LIG    OT210597   0.124   7.272   2.710
  725LIG      N10598   2.227   8.572   2.600
  725LIG     H110599   2.204   8.507   2.528
  725LIG     H210600   2.245   8.523   2.685
  725LIG     H310601   2.152   8.636   2.613
  725LIG     CA10602   2.352   8.650   2.560
  725LIG     HA10603   2.428   8.586   2.547
  725LIG     CB10604   2.325   8.723   2.431
  725LIG    HB110605   2.247   8.785   2.443
  725LIG    HB210606   2.303   8.657   2.359
  725LIG     CG10607   2.445   8.802   2.389
  725LIG    OD110608   2.453   8.926   2.443
  725LIG    OD210609   2.530   8.758   2.311
  725LIG      C10610   2.388   8.752   2.672
  725LIG    OT110611   2.308   8.755   2.782
  725LIG    OT210612   2.498   8.829   2.651
  726LIG      N10613   2.911   6.776   9.681
  726LIG     H110614   2.824   6.738   9.711
  726LIG     H210615   2.911   6.875   9.694
  726LIG     H310616   2.926   6.754   9.585
  726LIG     CA10617   3.023   6.715   9.764
  726LIG     HA10618   3.008   6.736   9.860
  726LIG     CB10619   3.022   6.565   9.745
  726LIG    HB110620   3.034   6.543   9.648
  726LIG    HB210621   2.935   6.528   9.775
  726LIG     CG10622   3.132   6.501   9.824
  726LIG    OD110623   3.252   6.496   9.761
  726LIG    OD210624   3.115   6.457   9.937
  726LIG      C10625   3.160   6.773   9.718
  726LIG    OT110626   3.159   6.864   9.617
  726LIG    OT210627   3.271   6.728   9.784
  727LIG      N10628   7.260   9.718   1.106
  727LIG     H110629   7.243   9.817   1.104
  727LIG     H210630   7.237   9.679   1.017
  727LIG     H310631   7.204   9.676   1.177
  727LIG     CA10632   7.407   9.693   1.136
  727LIG     HA10633   7.463   9.736   1.066
  727LIG     CB10634   7.440   9.755   1.270
  727LIG    HB110635   7.382   9.714   1.341
  727LIG    HB210636   7.424   9.853   1.267
  727LIG     CG10637   7.584   9.731   1.304
  727LIG    OD110638   7.609   9.613   1.366
  727LIG    OD210639   7.673   9.812   1.278
  727LIG      C10640   7.435   9.540   1.140
  727LIG    OT110641   7.329   9.457   1.116
  727LIG    OT210642   7.563   9.501   1.166
  728LIG      N10643   8.025   9.925  10.037
  728LIG     H110644   7.962   9.854  10.005
  728LIG     H210645   8.025   9.927  10.137
  728LIG     H310646   7.996  10.014  10.002
  728LIG     CA10647   8.165   9.895   9.987
  728LIG     HA10648   8.194   9.805  10.021
  728LIG     CB10649   8.163   9.891   9.836
  728LIG    HB110650   8.131   9.979   9.800
  728LIG    HB210651   8.100   9.820   9.805
  728LIG     CG10652   8.300   9.863   9.782
  728LIG    OD110653   8.378   9.971   9.766
  728LIG    OD210654   8.338   9.749   9.754
  728LIG      C10655   8.264  10.004  10.036
  728LIG    OT110656   8.213  10.105  10.112
  728LIG    OT210657   8.394   9.990   9.998
  729LIG      N10658   2.379   4.171   6.356
  729LIG     H110659   2.292   4.208   6.322
  729LIG     H210660   2.440   4.153   6.279
  729LIG     H310661   2.361   4.086   6.406
  729LIG     CA10662   2.444   4.271   6.450
  729LIG     HA10663   2.460   4.357   6.400
  729LIG     CB10664   2.350   4.299   6.565
  729LIG    HB110665   2.330   4.213   6.613
  729LIG    HB210666   2.264   4.337   6.530
  729LIG     CG10667   2.411   4.397   6.660
  729LIG    OD110668   2.491   4.342   6.754
  729LIG    OD210669   2.390   4.518   6.653
  729LIG      C10670   2.578   4.215   6.503
  729LIG    OT110671   2.615   4.090   6.460
  729LIG    OT210672   2.649   4.294   6.589
  730LIG      N10673   0.775   5.209   2.556
  730LIG     H110674   0.872   5.233   2.559
  730LIG     H210675   0.730   5.264   2.485
  730LIG     H310676   0.733   5.228   2.645
  730LIG     CA10677   0.760   5.062   2.523
  730LIG     HA10678   0.802   5.043   2.435
  730LIG     CB10679   0.830   4.981   2.630
  730LIG    HB110680   0.790   5.001   2.720
  730LIG    HB210681   0.927   5.004   2.632
  730LIG     CG10682   0.816   4.834   2.602
  730LIG    OD110683   0.703   4.778   2.651
  730LIG    OD210684   0.901   4.770   2.540
  730LIG      C10685   0.609   5.024   2.519
  730LIG    OT110686   0.519   5.124   2.543
  730LIG    OT210687   0.579   4.894   2.490
  731LIG      N10688   6.848   9.781   9.346
  731LIG     H110689   6.763   9.749   9.387
  731LIG     H210690   6.916   9.708   9.347
  731LIG     H310691   6.882   9.860   9.398
  731LIG     CA10692   6.822   9.824   9.202
  731LIG     HA10693   6.787   9.746   9.151
  731LIG     CB10694   6.718   9.934   9.202
  731LIG    HB110695   6.752  10.011   9.256
  731LIG    HB210696   6.634   9.900   9.242
  731LIG     CG10697   6.691   9.979   9.062
  731LIG    OD110698   6.775  10.075   9.016
  731LIG    OD210699   6.599   9.934   8.995
  731LIG      C10700   6.953   9.875   9.137
  731LIG    OT110701   7.066   9.873   9.215
  731LIG    OT210702   6.946   9.917   9.008
  732LIG      N10703   4.834   1.514   6.043
  732LIG     H110704   4.921   1.525   6.091
  732LIG     H210705   4.760   1.553   6.098
  732LIG     H310706   4.817   1.417   6.026
  732LIG     CA10707   4.840   1.587   5.910
  732LIG     HA10708   4.858   1.684   5.925
  732LIG     CB10709   4.953   1.529   5.827
  732LIG    HB110710   4.938   1.431   5.813
  732LIG    HB210711   5.040   1.541   5.876
  732LIG     CG10712   4.962   1.597   5.694
  732LIG    OD110713   4.882   1.545   5.599
  732LIG    OD210714   5.036   1.693   5.674
  732LIG      C10715   4.706   1.570   5.834
  732LIG    OT110716   4.608   1.497   5.895
  732LIG    OT210717   4.696   1.630   5.712
  733LIG      N10718   0.382   6.774   0.376
  733LIG     H110719   0.316   6.760   0.303
  733LIG     H210720   0.441   6.852   0.353
  733LIG     H310721   0.439   6.692   0.387
  733LIG     CA10722   0.309   6.802   0.506
  733LIG     HA10723   0.252   6.883   0.496
  733LIG     CB10724   0.220   6.684   0.539
  733LIG    HB110725   0.276   6.601   0.547
  733LIG    HB210726   0.154   6.671   0.465
  733LIG     CG10727   0.147   6.707   0.667
  733LIG    OD110728   0.215   6.671   0.778
  733LIG    OD210729   0.034   6.755   0.671
  733LIG      C10730   0.411   6.824   0.621
  733LIG    OT110731   0.544   6.816   0.589
  733LIG    OT210732   0.361   6.850   0.745
  734LIG      N10733   9.743   5.541   7.708
  734LIG     H110734   9.823   5.590   7.672
  734LIG     H210735   9.740   5.551   7.807
  734LIG     H310736   9.750   5.444   7.683
  734LIG     CA10737   9.617   5.599   7.648
  734LIG     HA10738   9.610   5.696   7.671
  734LIG     CB10739   9.623   5.585   7.497
  734LIG    HB110740   9.632   5.488   7.473
  734LIG    HB210741   9.702   5.635   7.462
  734LIG     CG10742   9.499   5.640   7.434
  734LIG    OD110743   9.396   5.553   7.425
  734LIG    OD210744   9.492   5.756   7.393
  734LIG      C10745   9.492   5.524   7.702
  734LIG    OT110746   9.515   5.423   7.791
  734LIG    OT210747   9.370   5.565   7.657
  735LIG      N10748   9.839   6.902   8.782
  735LIG     H110749   9.889   6.933   8.864
  735LIG     H210750   9.847   6.972   8.710
  735LIG     H310751   9.743   6.888   8.805
  735LIG     CA10752   9.899   6.771   8.733
  735LIG     HA10753   9.995   6.785   8.711
  735LIG     CB10754   9.888   6.669   8.844
  735LIG    HB110755   9.791   6.656   8.869
  735LIG    HB210756   9.938   6.700   8.924
  735LIG     CG10757   9.944   6.537   8.799
  735LIG    OD110758   9.857   6.458   8.733
  735LIG    OD210759  10.061   6.505   8.821
  735LIG      C10760   9.822   6.722   8.608
  735LIG    OT110761   9.719   6.800   8.563
  735LIG    OT210762   9.864   6.605   8.551
  736LIG      N10763   0.602   2.862   6.984
  736LIG     H110764   0.682   2.876   6.925
  736LIG     H210765   0.629   2.870   7.080
  736LIG     H310766   0.564   2.771   6.967
  736LIG     CA10767   0.497   2.968   6.951
  736LIG     HA10768   0.535   3.058   6.967
  736LIG     CB10769   0.459   2.955   6.806
  736LIG    HB110770   0.423   2.863   6.788
  736LIG    HB210771   0.539   2.970   6.748
  736LIG     CG10772   0.354   3.056   6.770
  736LIG    OD110773   0.227   3.018   6.794
  736LIG    OD210774   0.383   3.166   6.722
  736LIG      C10775   0.372   2.947   7.041
  736LIG    OT110776   0.375   2.843   7.130
  736LIG    OT210777   0.269   3.034   7.024
  737LIG      N10778   6.933   3.577   9.909
  737LIG     H110779   6.938   3.588  10.009
  737LIG     H210780   7.004   3.632   9.866
  737LIG     H310781   6.843   3.607   9.877
  737LIG     CA10782   6.953   3.431   9.873
  737LIG     HA10783   7.042   3.400   9.906
  737LIG     CB10784   6.846   3.348   9.941
  737LIG    HB110785   6.755   3.380   9.911
  737LIG    HB210786   6.852   3.359  10.040
  737LIG     CG10787   6.861   3.203   9.907
  737LIG    OD110788   6.800   3.166   9.792
  737LIG    OD210789   6.924   3.125   9.978
  737LIG      C10790   6.945   3.412   9.719
  737LIG    OT110791   6.922   3.524   9.644
  737LIG    OT210792   6.961   3.286   9.671
  738LIG      N10793   4.749   1.412   9.453
  738LIG     H110794   4.699   1.467   9.386
  738LIG     H210795   4.825   1.466   9.491
  738LIG     H310796   4.784   1.330   9.409
  738LIG     CA10797   4.655   1.373   9.566
  738LIG     HA10798   4.619   1.455   9.609
  738LIG     CB10799   4.540   1.294   9.507
  738LIG    HB110800   4.575   1.212   9.461
  738LIG    HB210801   4.490   1.349   9.441
  738LIG     CG10802   4.445   1.251   9.616
  738LIG    OD110803   4.478   1.135   9.677
  738LIG    OD210804   4.345   1.317   9.645
  738LIG      C10805   4.730   1.287   9.670
  738LIG    OT110806   4.863   1.262   9.647
  738LIG    OT210807   4.659   1.243   9.778
  739LIG      N10808   1.978   5.599   4.271
  739LIG     H110809   1.928   5.639   4.348
  739LIG     H210810   2.041   5.667   4.233
  739LIG     H310811   1.913   5.569   4.201
  739LIG     CA10812   2.057   5.479   4.320
  739LIG     HA10813   2.121   5.508   4.391
  739LIG     CB10814   1.961   5.378   4.379
  739LIG    HB110815   1.895   5.350   4.309
  739LIG    HB210816   1.912   5.418   4.455
  739LIG     CG10817   2.036   5.257   4.427
  739LIG    OD110818   2.058   5.163   4.333
  739LIG    OD210819   2.073   5.244   4.544
  739LIG      C10820   2.135   5.415   4.202
  739LIG    OT110821   2.122   5.474   4.079
  739LIG    OT210822   2.212   5.306   4.230
  740LIG      N10823   5.328   1.465   9.562
  740LIG     H110824   5.233   1.497   9.552
  740LIG     H210825   5.345   1.439   9.657
  740LIG     H310826   5.391   1.538   9.535
  740LIG     CA10827   5.351   1.344   9.472
  740LIG     HA10828   5.288   1.271   9.498
  740LIG     CB10829   5.323   1.384   9.329
  740LIG    HB110830   5.385   1.459   9.303
  740LIG    HB210831   5.229   1.414   9.320
  740LIG     CG10832   5.346   1.268   9.237
  740LIG    OD110833   5.474   1.253   9.196
  740LIG    OD210834   5.256   1.193   9.202
  740LIG      C10835   5.497   1.295   9.487
  740LIG    OT110836   5.578   1.363   9.573
  740LIG    OT210837   5.533   1.186   9.412
  741LIG      N10838   6.946   3.571   0.773
  741LIG     H110839   6.984   3.481   0.797
  741LIG     H210840   7.021   3.635   0.756
  741LIG     H310841   6.889   3.604   0.848
  741LIG     CA10842   6.861   3.557   0.648
  741LIG     HA10843   6.918   3.524   0.573
  741LIG     CB10844   6.750   3.458   0.674
  741LIG    HB110845   6.694   3.490   0.751
  741LIG    HB210846   6.789   3.370   0.697
  741LIG     CG10847   6.663   3.444   0.553
  741LIG    OD110848   6.563   3.534   0.543
  741LIG    OD210849   6.681   3.355   0.469
  741LIG      C10850   6.801   3.695   0.609
  741LIG    OT110851   6.832   3.802   0.690
  741LIG    OT210852   6.722   3.700   0.499
  742LIG      N10853   3.383   1.932   6.041
  742LIG     H110854   3.336   1.896   5.960
  742LIG     H210855   3.475   1.962   6.016
  742LIG     H310856   3.389   1.860   6.110
  742LIG     CA10857   3.305   2.049   6.097
  742LIG     HA10858   3.298   2.121   6.028
  742LIG     CB10859   3.165   2.002   6.133
  742LIG    HB110860   3.171   1.928   6.201
  742LIG    HB210861   3.119   1.968   6.052
  742LIG     CG10862   3.085   2.115   6.191
  742LIG    OD110863   3.100   2.133   6.324
  742LIG    OD210864   3.011   2.185   6.122
  742LIG      C10865   3.376   2.105   6.223
  742LIG    OT110866   3.492   2.043   6.262
  742LIG    OT210867   3.318   2.211   6.286
  743LIG      N10868   0.563   4.548   5.304
  743LIG     H110869   0.648   4.592   5.272
  743LIG     H210870   0.560   4.552   5.404
  743LIG     H310871   0.562   4.453   5.273
  743LIG     CA10872   0.443   4.622   5.246
  743LIG     HA10873   0.445   4.717   5.276
  743LIG     CB10874   0.451   4.618   5.096
  743LIG    HB110875   0.452   4.522   5.065
  743LIG    HB210876   0.535   4.662   5.065
  743LIG     CG10877   0.333   4.688   5.035
  743LIG    OD110878   0.224   4.611   5.019
  743LIG    OD210879   0.337   4.806   5.002
  743LIG      C10880   0.312   4.554   5.294
  743LIG    OT110881   0.324   4.445   5.377
  743LIG    OT210882   0.195   4.609   5.251
  744LIG      N10883   7.896   4.917   3.623
  744LIG     H110884   7.826   4.952   3.686
  744LIG     H210885   7.866   4.931   3.529
  744LIG     H310886   7.910   4.819   3.640
  744LIG     CA10887   8.027   4.991   3.647
  744LIG     HA10888   8.013   5.088   3.631
  744LIG     CB10889   8.069   4.970   3.791
  744LIG    HB110890   8.081   4.872   3.808
  744LIG    HB210891   8.000   5.006   3.852
  744LIG     CG10892   8.199   5.040   3.817
  744LIG    OD110893   8.310   4.969   3.787
  744LIG    OD210894   8.204   5.154   3.864
  744LIG      C10895   8.136   4.937   3.551
  744LIG    OT110896   8.100   4.837   3.465
  744LIG    OT210897   8.260   4.994   3.560
  745LIG      N10898   9.542   6.563   6.336
  745LIG     H110899   9.602   6.483   6.326
  745LIG     H210900   9.530   6.608   6.247
  745LIG     H310901   9.583   6.627   6.401
  745LIG     CA10902   9.407   6.518   6.388
  745LIG     HA10903   9.366   6.453   6.324
  745LIG     CB10904   9.426   6.449   6.522
  745LIG    HB110905   9.469   6.512   6.586
  745LIG    HB210906   9.485   6.369   6.510
  745LIG     CG10907   9.294   6.404   6.577
  745LIG    OD110908   9.229   6.498   6.649
  745LIG    OD210909   9.250   6.291   6.559
  745LIG      C10910   9.313   6.640   6.405
  745LIG    OT110911   9.364   6.763   6.372
  745LIG    OT210912   9.187   6.616   6.452
  746LIG      N10913   2.451   9.865   6.880
  746LIG     H110914   2.448   9.774   6.923
  746LIG     H210915   2.486   9.931   6.946
  746LIG     H310916   2.360   9.891   6.850
  746LIG     CA10917   2.544   9.861   6.760
  746LIG     HA10918   2.635   9.833   6.789
  746LIG     CB10919   2.491   9.759   6.661
  746LIG    HB110920   2.398   9.784   6.633
  746LIG    HB210921   2.489   9.669   6.704
  746LIG     CG10922   2.579   9.753   6.540
  746LIG    OD110923   2.549   9.843   6.444
  746LIG    OD210924   2.671   9.672   6.529
  746LIG      C10925   2.550  10.001   6.693
  746LIG    OT110926   2.475  10.100   6.749
  746LIG    OT210927   2.629  10.013   6.582
  747LIG      N10928   1.533   4.265   3.132
  747LIG     H110929   1.475   4.186   3.156
  747LIG     H210930   1.549   4.267   3.034
  747LIG     H310931   1.621   4.257   3.180
  747LIG     CA10932   1.464   4.393   3.175
  747LIG     HA10933   1.376   4.401   3.128
  747LIG     CB10934   1.439   4.388   3.324
  747LIG    HB110935   1.527   4.377   3.373
  747LIG    HB210936   1.381   4.310   3.346
  747LIG     CG10937   1.373   4.514   3.371
  747LIG    OD110938   1.457   4.615   3.401
  747LIG    OD210939   1.250   4.523   3.382
  747LIG      C10940   1.553   4.515   3.140
  747LIG    OT110941   1.673   4.490   3.080
  747LIG    OT210942   1.504   4.638   3.173
  748LIG      N10943   1.770   4.499   5.798
  748LIG     H110944   1.851   4.500   5.857
  748LIG     H210945   1.795   4.466   5.707
  748LIG     H310946   1.732   4.591   5.791
  748LIG     CA10947   1.665   4.406   5.857
  748LIG     HA10948   1.703   4.314   5.865
  748LIG     CB10949   1.628   4.456   5.995
  748LIG    HB110950   1.593   4.550   5.989
  748LIG    HB210951   1.709   4.456   6.054
  748LIG     CG10952   1.524   4.368   6.057
  748LIG    OD110953   1.397   4.400   6.025
  748LIG    OD210954   1.552   4.274   6.131
  748LIG      C10955   1.539   4.404   5.767
  748LIG    OT110956   1.542   4.481   5.654
  748LIG    OT210957   1.435   4.325   5.807
  749LIG      N10958   1.014   9.198   2.020
  749LIG     H110959   1.040   9.191   1.924
  749LIG     H210960   1.084   9.156   2.077
  749LIG     H310961   0.926   9.152   2.034
  749LIG     CA10962   0.999   9.345   2.058
  749LIG     HA10963   1.086   9.392   2.043
  749LIG     CB10964   0.893   9.408   1.970
  749LIG    HB110965   0.806   9.359   1.982
  749LIG    HB210966   0.921   9.401   1.874
  749LIG     CG10967   0.875   9.552   2.005
  749LIG    OD110968   0.787   9.575   2.105
  749LIG    OD210969   0.934   9.643   1.946
  749LIG      C10970   0.957   9.357   2.207
  749LIG    OT110971   0.942   9.241   2.277
  749LIG    OT210972   0.940   9.483   2.256
  750LIG      N10973   9.211   7.863   3.122
  750LIG     H110974   9.228   7.778   3.072
  750LIG     H210975   9.223   7.846   3.220
  750LIG     H310976   9.118   7.895   3.103
  750LIG     CA10977   9.310   7.969   3.076
  750LIG     HA10978   9.403   7.937   3.094
  750LIG     CB10979   9.293   7.991   2.928
  750LIG    HB110980   9.199   8.020   2.909
  750LIG    HB210981   9.310   7.906   2.878
  750LIG     CG10982   9.388   8.096   2.879
  750LIG    OD110983   9.343   8.223   2.891
  750LIG    OD210984   9.498   8.069   2.832
  750LIG      C10985   9.285   8.101   3.153
  750LIG    OT110986   9.183   8.102   3.245
  750LIG    OT210987   9.366   8.207   3.123
  751LIG      N10988   2.408   0.240   6.140
  751LIG     H110989   2.416   0.146   6.172
  751LIG     H210990   2.435   0.245   6.043
  751LIG     H310991   2.467   0.299   6.194
  751LIG     CA10992   2.264   0.287   6.154
  751LIG     HA10993   2.204   0.228   6.100
  751LIG     CB10994   2.224   0.279   6.299
  751LIG    HB110995   2.285   0.336   6.355
  751LIG    HB210996   2.231   0.184   6.331
  751LIG     CG10997   2.083   0.326   6.317
  751LIG    OD110998   2.069   0.459   6.334
  751LIG    OD210999   1.987   0.248   6.318
  751LIG      C11000   2.251   0.434   6.104
  751LIG    OT111001   2.365   0.494   6.057
  751LIG    OT211002   2.127   0.491   6.110
  752LIG      N11003   4.385   0.216   2.390
  752LIG     H111004   4.418   0.189   2.299
  752LIG     H211005   4.354   0.134   2.439
  752LIG     H311006   4.309   0.280   2.381
  752LIG     CA11007   4.498   0.282   2.467
  752LIG     HA11008   4.574   0.219   2.476
  752LIG     CB11009   4.544   0.404   2.390
  752LIG    HB111010   4.467   0.468   2.379
  752LIG    HB211011   4.577   0.377   2.300
  752LIG     CG11012   4.655   0.474   2.464
  752LIG    OD111013   4.613   0.563   2.557
  752LIG    OD211014   4.773   0.451   2.441
  752LIG      C11015   4.448   0.324   2.608
  752LIG    OT111016   4.318   0.296   2.639
  752LIG    OT211017   4.538   0.386   2.690
  753LIG      N11018   0.138   1.678   4.280
  753LIG     H111019   0.117   1.676   4.182
  753LIG     H211020   0.233   1.651   4.294
  753LIG     H311021   0.077   1.614   4.327
  753LIG     CA11022   0.115   1.818   4.334
  753LIG     HA11023   0.174   1.882   4.286
  753LIG     CB11024  -0.029   1.857   4.310
  753LIG    HB111025  -0.090   1.791   4.356
  753LIG    HB211026  -0.049   1.856   4.212
  753LIG     CG11027  -0.056   1.994   4.364
  753LIG    OD111028  -0.090   1.998   4.495
  753LIG    OD211029  -0.049   2.095   4.294
  753LIG      C11030   0.146   1.821   4.486
  753LIG    OT111031   0.187   1.704   4.544
  753LIG    OT211032   0.130   1.941   4.550
  754LIG      N11033   8.615   7.153   5.889
  754LIG     H111034   8.585   7.058   5.895
  754LIG     H211035   8.623   7.179   5.792
  754LIG     H311036   8.704   7.164   5.933
  754LIG     CA11037   8.514   7.243   5.957
  754LIG     HA11038   8.425   7.233   5.914
  754LIG     CB11039   8.503   7.202   6.103
  754LIG    HB111040   8.593   7.210   6.147
  754LIG    HB211041   8.472   7.108   6.109
  754LIG     CG11042   8.405   7.290   6.174
  754LIG    OD111043   8.457   7.405   6.224
  754LIG    OD211044   8.286   7.259   6.188
  754LIG      C11045   8.560   7.392   5.948
  754LIG    OT111046   8.677   7.416   5.882
  754LIG    OT211047   8.479   7.485   6.005
  755LIG      N11048   8.323   3.286   4.546
  755LIG     H111049   8.330   3.198   4.592
  755LIG     H211050   8.352   3.359   4.608
  755LIG     H311051   8.228   3.301   4.518
  755LIG     CA11052   8.412   3.286   4.422
  755LIG     HA11053   8.506   3.271   4.450
  755LIG     CB11054   8.368   3.174   4.330
  755LIG    HB111055   8.272   3.188   4.304
  755LIG    HB211056   8.377   3.087   4.377
  755LIG     CG11057   8.453   3.172   4.207
  755LIG    OD111058   8.411   3.254   4.108
  755LIG    OD211059   8.553   3.101   4.197
  755LIG      C11060   8.401   3.423   4.349
  755LIG    OT111061   8.317   3.516   4.404
  755LIG    OT211062   8.475   3.438   4.236
  10.00000  10.00000  10.00000
